  MPI-parallelism will be employed.
------------------------------------------------------------
          Invoking FHI-aims ...
          Version 160328_3
          Compiled on 2019/06/10 at 14:55:49 on host taito-login3.csc.fi.

          When using FHI-aims, please cite the following reference:

          Volker Blum, Ralf Gehrke, Felix Hanke, Paula Havu,
          Ville Havu, Xinguo Ren, Karsten Reuter, and Matthias Scheffler,
          'Ab Initio Molecular Simulations with Numeric Atom-Centered Orbitals',
          Computer Physics Communications 180, 2175-2196 (2009)

          For any questions about FHI-aims, please visit the aimsclub website
          with its forums and wiki. Contributions to both the forums and the
          wiki are warmly encouraged - they are for you, and everyone is welcome there.

------------------------------------------------------------

  Date     :  20190722, Time     :  144424.983
  Time zero on CPU 1             :   0.759880000000000E-01  s.
  Internal wall clock time zero  :           333038664.983  s.

  Using        4 parallel tasks.
  Task        0 on host c798 reporting.
  Task        1 on host c798 reporting.
  Task        2 on host c798 reporting.
  Task        3 on host c798 reporting.

  Performing system and environment tests:
  | Environment variable OMP_NUM_THREADS correctly set to 1.
  | Maximum stacksize for task 0: unlimited
  | Maximum stacksize for task 1: unlimited
  | Maximum stacksize for task 2: unlimited
  | Maximum stacksize for task 3: unlimited
  | Current stacksize for task 0: 1024 [Mb]
  | Current stacksize for task 1: 1024 [Mb]
  | Current stacksize for task 2: 1024 [Mb]
  | Current stacksize for task 3: 1024 [Mb]
  | Checking for scalapack...
  | No scalapack compiled in.

  Obtaining array dimensions for all initial allocations:
  
  -----------------------------------------------------------------------
  Parsing control.in (first pass over file, find array dimensions only).
  The contents of control.in will be repeated verbatim below
  unless switched off by setting 'verbatim_writeout .false.' .
  in the first line of control.in .
  -----------------------------------------------------------------------
  
    #  Physical model settings
    #
  
    xc                            pbe
    charge                        1.0
    relativistic                  none
  #  default_initial_moment        0.0
    spin                          none
  #  vdw_correction_hirshfeld
  
    #  SCF convergence settings
    #
  
    sc_accuracy_rho               1E-4
    sc_accuracy_eev               1E-2
    sc_accuracy_etot              1E-8
    sc_iter_limit                 100
  
    #  Occupation settings
    #
  
    restart                       restart
  #  force_occupation_projector      6 1 1.0 6 7 # ion 3
  
    #  Relaxation
    #
  
    #######relax_geometry                bfgs    1.e-4
  
  
  ################################################################################
  #
  #  FHI-aims code project
  #  VB, Fritz-Haber Institut, 2007
  #
  #  Suggested "safe" defaults for O atom (to be pasted into control.in file)
  #
  ################################################################################
    species        O
  #     global species definitions
      nucleus             8
      mass                15.9994
  #
      l_hartree           8
  #
      cut_pot             4.0  2.0  1.0
      basis_dep_cutoff    0.d0
  #
      radial_base         36 7.0
      radial_multiplier   2
       angular_grids specified
        division   0.4087  110
        division   0.5181  194
        division   0.6184  302
        division   0.7315  434
        division   0.7934  590
  #      division   0.9656  770
  #      division   1.4041  974
  #      outer_grid 974
        outer_grid 590
  ################################################################################
  #
  #  Definition of "minimal" basis
  #
  ################################################################################
  #     valence basis states
      valence      2  s   2.
      valence      2  p   4.
  #     ion occupancy
      ion_occ      2  s   1.
      ion_occ      2  p   3.
  ################################################################################
  #
  #  Suggested additional basis functions. For production calculations,
  #  uncomment them one after another (the most important basis functions are
  #  listed first).
  #
  #  Constructed for dimers: 1.0 A, 1.208 A, 1.5 A, 2.0 A, 3.0 A
  #
  ################################################################################
  #  "First tier" - improvements: -699.05 meV to -159.38 meV
       hydro 2 p 1.8
       hydro 3 d 7.6
       hydro 3 s 6.4
  #  "Second tier" - improvements: -49.91 meV to -5.39 meV
       hydro 4 f 11.6
       hydro 3 p 6.2
       hydro 3 d 5.6
       hydro 5 g 17.6
       hydro 1 s 0.75
  #  "Third tier" - improvements: -2.83 meV to -0.50 meV
  #     ionic 2 p auto
  #     hydro 4 f 10.8
  #     hydro 4 d 4.7
  #     hydro 2 s 6.8
  #  "Fourth tier" - improvements: -0.40 meV to -0.12 meV
  #     hydro 3 p 5
  #     hydro 3 s 3.3
  #     hydro 5 g 15.6
  #     hydro 4 f 17.6
  #     hydro 4 d 14
  # Further basis functions - -0.08 meV and below
  #     hydro 3 s 2.1
  #     hydro 4 d 11.6
  #     hydro 3 p 16
  #     hydro 2 s 17.2
  compute_forces .true.
  final_forces_cleaned .true.
  output dipole
  
  -----------------------------------------------------------------------
  Completed first pass over input file control.in .
  -----------------------------------------------------------------------
  
  
  -----------------------------------------------------------------------
  Parsing geometry.in (first pass over file, find array dimensions only).
  The contents of geometry.in will be repeated verbatim below
  unless switched off by setting 'verbatim_writeout .false.' .
  in the first line of geometry.in .
  -----------------------------------------------------------------------
  
  #
  # temporary structure-file for finite-difference calculation of forces
  # displacement  -0.0025 of \# atom     1 direction     0
  #
  atom    0.00000000   -0.00000000    0.04235920   O
  atom   -0.00250000   -0.00000000    1.16514080   O
  
  -----------------------------------------------------------------------
  Completed first pass over input file geometry.in .
  -----------------------------------------------------------------------
  

  Basic array size parameters:
  | Number of species                 :        1
  | Number of atoms                   :        2
  | Max. basis fn. angular momentum   :        4
  | Max. atomic/ionic basis occupied n:        2
  | Max. number of basis fn. types    :        2
  | Max. radial fns per species/type  :        8
  | Max. logarithmic grid size        :     1301
  | Max. radial integration grid size :       73
  | Max. angular integration grid size:      590
  | Max. angular grid division number :        8
  | Radial grid for Hartree potential :     1301
  | Number of spin channels           :        1

------------------------------------------------------------
          Reading file control.in.
------------------------------------------------------------
  XC: Using PBE gradient-corrected functionals.
  Charged system requested: Charge =   0.100000E+01.
  Non-relativistic treatment of kinetic energy.
  Spin treatment: No spin polarisation.
  Convergence accuracy of self-consistent charge density:  0.1000E-03
  Convergence accuracy of sum of eigenvalues:  0.1000E-01
  Convergence accuracy of total energy:  0.1000E-07
  Maximum number of s.-c. iterations  :   100
  Restart file specified as : restart
  | Reading information from existing file.
 
  Reading configuration options for species O                   .
  | Found nuclear charge :   8.0000
  | Found atomic mass :    15.9994000000000      amu
  | Found l_max for Hartree potential  :   8
  | Found cutoff potl. onset [A], width [A], scale factor :    4.00000    2.00000    1.00000
  | Threshold for basis-dependent cutoff potential is   0.000000E+00
  | Found data for basic radial integration grid :    36 points, outermost radius =    7.000 A
  | Found multiplier for basic radial grid :   2
  | Found angular grid specification: user-specified.
  | Specified grid contains     6 separate shells.
  | Check grid settings after all constraints further below.
  | Found free-atom valence shell :  2 s   2.000
  | Found free-atom valence shell :  2 p   4.000
  | No ionic wave fns used. Skipping ion_occ.
  | No ionic wave fns used. Skipping ion_occ.
  | Found hydrogenic basis function :  2 p   1.800
  | Found hydrogenic basis function :  3 d   7.600
  | Found hydrogenic basis function :  3 s   6.400
  | Found hydrogenic basis function :  4 f  11.600
  | Found hydrogenic basis function :  3 p   6.200
  | Found hydrogenic basis function :  3 d   5.600
  | Found hydrogenic basis function :  5 g  17.600
  | Found hydrogenic basis function :  1 s   0.750
  Species O                   : Missing cutoff potential type.
  Defaulting to exp(1/x)/(1-x)^2 type cutoff potential.
  Species O : No 'logarithmic' tag. Using default grid for free atom:
  | Default logarithmic grid data [bohr] : 0.1000E-03 0.1000E+03 0.1012E+01
  Species O : On-site basis accuracy parameter (for Gram-Schmidt orthonormalisation) not specified.
  Using default value basis_acc =  0.1000000E-03.
  Species O                   : Using default innermost maximum threshold i_radial=  2 for radial functions.
  Species O                   : Default cutoff onset for free atom density etc. : 0.40000000E+01 AA.
  Species O                   : Basic radial grid will be enhanced according to radial_multiplier =   2, to contain    73 grid points.
  Forces will be computed.
  Cleaning forces before final output.
  Dipole moment will be written out.
 
  Finished reading input file 'control.in'. Consistency checks are next.
 
  Target number of points in a grid batch is not set. Defaulting to  100
  Method for grid partitioning is not set. Defaulting to parallel hash+maxmin partitioning.
  Batch size limit is not set. Defaulting to    200
  By default, will store active basis functions for each batch.
  If in need of memory, prune_basis_once .false. can be used to disable this option.
  communication_type for Hartree potential was not specified.
  Defaulting to calc_hartree .
  Defaulting to Pulay charge density mixer.
  Pulay mixer: Number of relevant iterations not set.
  Defaulting to    8 iterations.
  Pulay mixer: Number of initial linear mixing iterations not set.
  Defaulting to    0 iterations.
  Work space size for distributed Hartree potential not set.
  Defaulting to   0.200000E+03 MB.
  Mixing parameter for charge density mixing has not been set.
  Using default: charge_mix_param =     0.2000.
  Algorithm-dependent basis array size parameters:
  | n_max_pulay                         :        8
  Geometry relaxation not requested: no relaxation will be performed.
  Force calculation: scf convergence accuracy of forces not set.
  Defaulting to  0.1000E-03 eV/A.
  Handling of forces: Unphysical translation and rotation will be removed from forces.
  No accuracy limit for integral partition fn. given. Defaulting to  0.1000E-14.
  No threshold value for u(r) in integrations given. Defaulting to  0.1000E-05.
  No occupation type (smearing scheme) given. Defaulting to Gaussian broadening, width =  0.1000E-01 eV.
  No accuracy for occupation numbers given. Defaulting to  0.1000E-07.
  No threshold value for occupation numbers given. Defaulting to  0.0000E+00.
  No accuracy for fermi level given. Defaulting to  0.1000E-19.
  Maximum # of iterations to find E_F not set. Defaulting to  200.
  Preferred method for the eigenvalue solver ('KS_method') not specified in 'control.in'.
  Calling blacs routine to test compilation state
  The best choice would be 'elpa', but your version of FHI-aims is compiled without scalapack support.
  Defaulting to 'lapack_fast' instead (serial solution, time will not improve with more CPUs).
  Will not use alltoall communication since running on < 1024 CPUs.
  Threshold for basis singularities not set.
  Default threshold for basis singularities:  0.1000E-04
  partition_type (choice of integration weights) for integrals was not specified.
  | Using a version of the partition function of Stratmann and coworkers ('stratmann_smoother').
  | At each grid point, the set of atoms used to build the partition table is smoothly restricted to
  | only those atoms whose free-atom density would be non-zero at that grid point.
  Partitioning for Hartree potential was not defined. Using partition_type for integrals.
  | Adjusted default value of keyword multip_moments_threshold to:       0.10000000E-11
  | This value may affect high angular momentum components of the Hartree potential in periodic systems.
  No q(lm)/r^(l+1) cutoff set for long-range Hartree potential.
  | Using default value of  0.100000E-09 .
  | Verify using the multipole_threshold keyword.
  Defaulting to new monopole extrapolation.
  Density update method: automatic selection selected.
------------------------------------------------------------


------------------------------------------------------------
          Reading geometry description geometry.in.
------------------------------------------------------------
 * Warning: Initial charge and total charge of the system are inconsistent.
 * Selected charge in control.in:     1.0000* Sum of initial charges in geometry.in:     0.0000
  Input structure read successfully.
  The structure contains        2 atoms,  and a total of         15.000 electrons.

  Input geometry:
  | No unit cell requested.
  | Atomic structure:
  |       Atom                x [A]            y [A]            z [A]
  |    1: Species O              0.000000         0.000000         0.042359
  |    2: Species O             -0.002500         0.000000         1.165141
  |

  | The smallest distance between any two atoms is         1.12278438 AA.
  |
  | The first atom of this pair is atom number                      1 .
  | The second atom of this pair is atom number                     2 .

  Number of empty states per atom not set in control.in - providing a guess from actual geometry.
  | Total number of empty states used during s.c.f. cycle:        6
  If you use a very high smearing, use empty_states (per atom!) in control.in to increase this value.

  Structure-dependent array size parameters: 
  | Maximum number of distinct radial functions  :       11
  | Maximum number of basis functions            :       78
  | Number of Kohn-Sham states (occupied + empty):       14
------------------------------------------------------------

------------------------------------------------------------
          Preparing all fixed parts of the calculation.
------------------------------------------------------------
  Determining machine precision:
    2.225073858507201E-308
  Setting up grids for atomic and cluster calculations.

  Creating wave function, potential, and density for free atoms.

  Species: O

  List of occupied orbitals and eigenvalues:
    n    l              occ      energy [Ha]    energy [eV]
    1    0           2.0000       -18.898576      -514.2564
    2    0           2.0000        -0.878795       -23.9132
    2    1           4.0000        -0.332075        -9.0362

  Creating fixed part of basis set: Ionic, confined, hydrogenic.
 
  O                    hydrogenic:
 
  List of hydrogenic basis orbitals: 
    n    l      effective z      eigenvalue [eV]  inner max. [A]     outer max. [A]     outer radius [A]   
    2    1         1.800000       -11.0118           1.178562           1.178562           5.432602
    3    2         7.600000       -87.3183           0.624125           0.624125           4.634338
    3    0         6.400000       -61.9210           0.061167           1.081902           5.110480
    4    3        11.600000      -114.4239           0.731631           0.731631           4.522403
    3    1         6.200000       -58.1114           0.255680           1.030270           5.110480
    3    2         5.600000       -47.4083           0.847233           0.847233           5.173339
    5    4        17.600000      -168.5800           0.749740           0.749740           4.051222
    1    0         0.750000        -7.6499           0.705284           0.705284           5.366593
 

  Adding cutoff potential to free-atom effective potential.
  Creating atomic-like basis functions for current effective potential.

  Species O                   :

  List of atomic basis orbitals and eigenvalues:
    n    l      energy [Ha]    energy [eV]    outer radius [A]
    1    0       -18.898576      -514.2564       1.415765
    2    0        -0.878795       -23.9132       5.048385
    2    1        -0.332075        -9.0362       5.301386

  Assembling full basis from fixed parts.
  | Species O :   atomic orbital   1 s accepted.
  | Species O :   atomic orbital   2 s accepted.
  | Species O :    hydro orbital   3 s accepted.
  | Species O :    hydro orbital   1 s accepted.
  | Species O :   atomic orbital   2 p accepted.
  | Species O :    hydro orbital   2 p accepted.
  | Species O :    hydro orbital   3 p accepted.
  | Species O :    hydro orbital   3 d accepted.
  | Species O :    hydro orbital   3 d accepted.
  | Species O :    hydro orbital   4 f accepted.
  | Species O :    hydro orbital   5 g accepted.
 
  Basis size parameters after reduction:
  | Total number of radial functions:       11
  | Total number of basis functions :       78
 
  Testing on-site integration grid accuracy.
  |  Species  Function  <phi|h_atom|phi> (log., in eV)  <phi|h_atom|phi> (rad., in eV)
           1        1               -514.2564144315               -514.2564099626
           1        2                -23.9132357102                -23.9132356433
           1        3                 17.5398579759                 17.5398338425
           1        4                 14.5207278950                 14.5207740449
           1        5                 -9.0362392718                 -9.0362394845
           1        6                  7.9056275927                  7.9056237490
           1        7                 33.4201658992                 33.4201612015
           1        8                 45.8231952720                 45.8231953152
           1        9                 52.1937595491                 52.1937593440
           1       10                 85.4062894308                 85.4062894578
           1       11                142.0975701139                142.0975701391

  Preparing densities etc. for the partition functions (integrals / Hartree potential).

  Preparations completed.
  max(cpu_time)          :      0.147 s.
  Wall clock time (cpu1) :      0.160 s.
------------------------------------------------------------

------------------------------------------------------------
          Begin self-consistency loop: Initialization.

          Date     :  20190722, Time     :  144425.159
------------------------------------------------------------

  Initializing index lists of integration centers etc. from given atomic structure:
  | Number of centers in hartree potential         :         2
  | Number of centers in hartree multipole         :         2
  | Number of centers in electron density summation:         2
  | Number of centers in basis integrals           :         2
  | Number of centers in integrals                 :         2
  | Number of centers in hamiltonian               :         2
  Partitioning the integration grid into batches with parallel hashing+maxmin method.
  | Number of batches:      826
  | Maximal batch size:     110
  | Minimal batch size:      49
  | Average batch size:      64.479
  | Standard deviation of batch sizes:      20.463

  Integration load balanced across     4 MPI tasks.
  Work distribution over tasks is as follows:
  Task     0 has      13331 integration points.
  Task     1 has      13309 integration points.
  Task     2 has      13344 integration points.
  Task     3 has      13276 integration points.
  Initializing partition tables, free-atom densities, potentials, etc. across the integration grid (initialize_grid_storage).
  | initialize_grid_storage: Actual outermost partition radius vs. multipole_radius_free
  | (-- VB: in principle, multipole_radius_free should be larger, hence this output)
  | Species        1: Confinement radius =              6.000000000000000 AA, multipole_radius_free =              6.064445521808699 AA.
  | Species        1: outer_partition_radius set to              6.064445521808699 AA .
  | Original list of interatomic distances with           2 x          2 entries is created.
  | Net number of integration points:    53260
  | of which are non-zero points    :    49990
  Obtaining max. number of non-zero basis functions in each batch (get_n_compute_maxes).
  | Maximal number of non-zero basis functions:       78 in task     0
  | Maximal number of non-zero basis functions:       78 in task     1
  | Maximal number of non-zero basis functions:       78 in task     2
  | Maximal number of non-zero basis functions:       78 in task     3
  Selecting the method for density update.
  Loop over occupied states selected for charge density update.
  Integrating Hamiltonian matrix: batch-based integration.
  Time summed over all CPUs for integration: real work        0.173 s, elapsed        0.174 s
  Integrating overlap matrix.
  Time summed over all CPUs for integration: real work        0.061 s, elapsed        0.062 s

  Reading cluster restart information from file restart
  Writing Kohn-Sham eigenvalues.

  State    Occupation    Eigenvalue [Ha]    Eigenvalue [eV]
      1       2.00000         -18.889873         -514.01961
      2       2.00000         -18.889654         -514.01363
      3       2.00000          -1.267293          -34.48480
      4       2.00000          -0.701439          -19.08712
      5       2.00000          -0.502548          -13.67503
      6       2.00000          -0.502548          -13.67503
      7       2.00000          -0.494805          -13.46433
      8       1.00000          -0.186832           -5.08397
      9       1.00000          -0.186832           -5.08397
     10       0.00000           0.098748            2.68707
     11       0.00000           0.105369            2.86723
     12       0.00000           0.133112            3.62217
     13       0.00000           0.000000            0.00000
     14       0.00000           0.000000            0.00000

  Highest occupied state (VBM) at     -5.08396601 eV
  | Occupation number:      1.00000315

  Lowest unoccupied state (CBM) at    -5.08396596 eV
  | Occupation number:      0.99999685

  Overall HOMO-LUMO gap:      0.00000006 eV.
*** get_ev_sum_p0 expected pure occ_numbers
*** sum(occ_numbers) =  1.6000000000208455E+01 instead of  1.5000000000000000E+01
  Calculating total energy contributions from superposition of free atom densities.
*** get_entropy_correction expected pure occ_numbers
*** sum(occ_numbers) =  1.6000000000208455E+01 instead of  1.5000000000000000E+01
*** get_penalty_energy expected pure occ_numbers
*** sum(occ_numbers) =  1.6000000000208455E+01 instead of  1.5000000000000000E+01

  Total energy components:
  | Sum of eigenvalues            :         -82.86998550 Ha       -2255.00703884 eV
  | XC energy correction          :         -16.82076998 Ha        -457.71643950 eV
  | XC potential correction       :          21.62723246 Ha         588.50693812 eV
  | Free-atom electrostatic energy:         -71.50995483 Ha       -1945.88487651 eV
  | Hartree energy correction     :           0.00000000 Ha           0.00000000 eV
  | Entropy correction            :          -0.00020734 Ha          -0.00564190 eV
  | ---------------------------
  | Total energy                  :        -149.57347785 Ha       -4070.10141672 eV
  | Total energy, T -> 0          :        -149.57368518 Ha       -4070.10705862 eV  <-- do not rely on this value for anything but (periodic) metals
  | Electronic free energy        :        -149.57389252 Ha       -4070.11270052 eV

  Derived energy quantities:
  | Kinetic energy                :         150.56069437 Ha        4096.96494510 eV
  | Electrostatic energy          :        -283.31340224 Ha       -7709.34992232 eV
  | Energy correction for multipole
  | error in Hartree potential    :           0.00000000 Ha           0.00000000 eV
  | Sum of eigenvalues per atom                           :       -1127.50351942 eV
  | Total energy (T->0) per atom                          :       -2035.05352931 eV  <-- do not rely on this value for anything but (periodic) metals
  | Electronic free energy per atom                       :       -2035.05635026 eV
  Initialize hartree_potential_storage
  Max. number of atoms included in rho_multipole:            2

  End scf initialization - timings             :  max(cpu_time)    wall_clock(cpu1)
  | Time for scf. initialization               :        0.127 s           0.126 s
  | Boundary condition initialization          :        0.001 s           0.001 s
  | Integration                                :        0.060 s           0.060 s
  | Solution of K.-S. eqns.                    :        0.002 s           0.001 s
  | Grid partitioning                          :        0.023 s           0.022 s
  | Preloading free-atom quantities on grid    :        0.017 s           0.017 s
  | Free-atom superposition energy             :        0.009 s           0.009 s
  | Total energy evaluation                    :        0.000 s           0.002 s
------------------------------------------------------------

------------------------------------------------------------
          Initial SCF-cycle to compute last known
          density from restart information.

  Date     :  20190722, Time     :  144425.286
------------------------------------------------------------
*** scf_solver:charge expected kweighted occ_numbers
*** sum(occ_numbers) =  1.6000000000208455E+01 instead of  1.5000000000000000E+01
  Evaluating new KS density.
*** update_density_and_forces_p2 expected kweighted occ_numbers
*** sum(occ_numbers) =  1.6000000000208455E+01 instead of  1.5000000000000000E+01
  Integration grid: deviation in total charge (<rho> - N_e) =   1.000000E+00

  Evaluating partitioned Hartree potential by multipole expansion.
  | Analytical far-field extrapolation by fixed multipoles:
  | Hartree multipole sum: apparent total charge =  -0.177415E-06
  Summing up the Hartree potential.
  Time summed over all CPUs for potential: real work        0.100 s, elapsed        0.101 s
  | RMS charge density error from multipole expansion :   0.646460E-03

  Integrating Hamiltonian matrix: batch-based integration.
  Time summed over all CPUs for integration: real work        0.167 s, elapsed        0.168 s

  Updating Kohn-Sham eigenvalues, eigenvectors, occupation numbers, and Fermi level.
  Solving generalized eigenproblem
  Updating Kohn-Sham eigenvalues and eigenfunctions.
  Transforming overlap matrix and checking for singularities.
  Overlap matrix is nonsingular:
  | Lowest eigenvalue:  0.185756E-03
  Solving real generalised eigenvalue problem by standard LAPACK (fast)
  Determining occupation numbers for Kohn-Sham eigenstates.
  | Chemical potential (Fermi level) in eV                 : -.50887376E+01
  | Error in electron count due to remaining E_F inaccuracy: 0.15450752E-10
  | Maximum occupation number of highest empty state:  0.00E+00

  Highest occupied state (VBM) at    -13.46433320 eV
  | Occupation number:      2.00000000

  Lowest unoccupied state (CBM) at    -5.08396998 eV
  | Occupation number:      0.50015325

  Overall HOMO-LUMO gap:      8.38036322 eV.

  Total energy components:
  | Sum of eigenvalues            :         -82.68315465 Ha       -2249.92311280 eV
  | XC energy correction          :         -16.91595019 Ha        -460.30642480 eV
  | XC potential correction       :          21.75097680 Ha         591.87419308 eV
  | Free-atom electrostatic energy:         -71.50995483 Ha       -1945.88487651 eV
  | Hartree energy correction     :          -0.65623119 Ha         -17.85695924 eV
  | Entropy correction            :          -0.00016515 Ha          -0.00449404 eV
  | ---------------------------
  | Total energy                  :        -150.01431406 Ha       -4082.09718027 eV
  | Total energy, T -> 0          :        -150.01447921 Ha       -4082.10167431 eV  <-- do not rely on this value for anything but (periodic) metals
  | Electronic free energy        :        -150.01464436 Ha       -4082.10616835 eV

  Derived energy quantities:
  | Kinetic energy                :         150.39445869 Ha        4092.44144196 eV
  | Electrostatic energy          :        -283.49282255 Ha       -7714.23219743 eV
  | Energy correction for multipole
  | error in Hartree potential    :          -0.00059256 Ha          -0.01612449 eV
  | Sum of eigenvalues per atom                           :       -1124.96155640 eV
  | Total energy (T->0) per atom                          :       -2041.05083716 eV  <-- do not rely on this value for anything but (periodic) metals
  | Electronic free energy per atom                       :       -2041.05308418 eV

  Self-consistency convergence accuracy:
  | Change of charge density      :  0.1358E+00
  | Change of sum of eigenvalues  :  0.5084E+01 eV
  | Change of total energy        : -0.1200E+02 eV

  End self-consistency iteration #     0       :  max(cpu_time)    wall_clock(cpu1)
  | Time for this iteration                    :        0.118 s           0.117 s
  | Charge density update                      :        0.033 s           0.032 s
  | Density mixing                             :        0.000 s           0.000 s
  | Hartree multipole update                   :        0.005 s           0.004 s
  | Hartree multipole summation                :        0.027 s           0.027 s
  | Integration                                :        0.043 s           0.043 s
  | Solution of K.-S. eqns.                    :        0.009 s           0.009 s
  | Total energy evaluation                    :        0.000 s           0.002 s
------------------------------------------------------------

------------------------------------------------------------
          Begin self-consistency iteration #    1

  Date     :  20190722, Time     :  144425.405
------------------------------------------------------------
  Evaluating new KS density.
  Integration grid: deviation in total charge (<rho> - N_e) =   1.548095E-11
  Pulay mixing of updated and previous charge densities.

  Evaluating partitioned Hartree potential by multipole expansion.
  | Analytical far-field extrapolation by fixed multipoles:
  | Hartree multipole sum: apparent total charge =   0.200000E+00
  Summing up the Hartree potential.
  Time summed over all CPUs for potential: real work        0.097 s, elapsed        0.098 s
  | RMS charge density error from multipole expansion :   0.568934E-03

  Integrating Hamiltonian matrix: batch-based integration.
  Time summed over all CPUs for integration: real work        0.165 s, elapsed        0.168 s

  Updating Kohn-Sham eigenvalues, eigenvectors, occupation numbers, and Fermi level.
  Solving generalized eigenproblem
  Updating Kohn-Sham eigenvalues and eigenfunctions.
  Solving real generalised eigenvalue problem by standard LAPACK (fast)
  Determining occupation numbers for Kohn-Sham eigenstates.
  | Chemical potential (Fermi level) in eV                 : -.81702214E+01
  | Error in electron count due to remaining E_F inaccuracy: 0.78212992E-11
  | Maximum occupation number of highest empty state:  0.00E+00

  Writing Kohn-Sham eigenvalues.

  State    Occupation    Eigenvalue [Ha]    Eigenvalue [eV]
      1       2.00000         -19.044718         -518.23316
      2       2.00000         -19.044500         -518.22721
      3       2.00000          -1.391441          -37.86304
      4       2.00000          -0.812974          -22.12216
      5       2.00000          -0.616513          -16.77617
      6       2.00000          -0.616512          -16.77614
      7       2.00000          -0.606202          -16.49561
      8       0.50136          -0.300075           -8.16547
      9       0.49864          -0.300074           -8.16544
     10       0.00000           0.042790            1.16439
     11       0.00000           0.050113            1.36365
     12       0.00000           0.078170            2.12711
     13       0.00000           0.078170            2.12712
     14       0.00000           0.157547            4.28708

  Highest occupied state (VBM) at    -16.49560631 eV
  | Occupation number:      2.00000000

  Lowest unoccupied state (CBM) at    -8.16546718 eV
  | Occupation number:      0.50136425

  Overall HOMO-LUMO gap:      8.33013914 eV.

  Total energy components:
  | Sum of eigenvalues            :         -84.56579677 Ha       -2301.15241150 eV
  | XC energy correction          :         -16.76353526 Ha        -456.15900351 eV
  | XC potential correction       :          21.55138840 Ha         586.44311613 eV
  | Free-atom electrostatic energy:         -71.50995483 Ha       -1945.88487651 eV
  | Hartree energy correction     :           1.36996813 Ha          37.27872959 eV
  | Entropy correction            :          -0.00016515 Ha          -0.00449403 eV
  | ---------------------------
  | Total energy                  :        -149.91793034 Ha       -4079.47444580 eV
  | Total energy, T -> 0          :        -149.91809549 Ha       -4079.47893983 eV  <-- do not rely on this value for anything but (periodic) metals
  | Electronic free energy        :        -149.91826064 Ha       -4079.48343386 eV

  Derived energy quantities:
  | Kinetic energy                :         149.84166532 Ha        4077.39916920 eV
  | Electrostatic energy          :        -282.99606040 Ha       -7700.71461148 eV
  | Energy correction for multipole
  | error in Hartree potential    :          -0.00047716 Ha          -0.01298415 eV
  | Sum of eigenvalues per atom                           :       -1150.57620575 eV
  | Total energy (T->0) per atom                          :       -2039.73946992 eV  <-- do not rely on this value for anything but (periodic) metals
  | Electronic free energy per atom                       :       -2039.74171693 eV

  Self-consistency convergence accuracy:
  | Change of charge density      :  0.2168E+00
  | Change of sum of eigenvalues  : -0.5123E+02 eV
  | Change of total energy        :  0.2623E+01 eV

  End self-consistency iteration #     1       :  max(cpu_time)    wall_clock(cpu1)
  | Time for this iteration                    :        0.106 s           0.105 s
  | Charge density update                      :        0.031 s           0.029 s
  | Density mixing                             :        0.001 s           0.002 s
  | Hartree multipole update                   :        0.005 s           0.003 s
  | Hartree multipole summation                :        0.026 s           0.026 s
  | Integration                                :        0.043 s           0.042 s
  | Solution of K.-S. eqns.                    :        0.001 s           0.001 s
  | Total energy evaluation                    :        0.000 s           0.001 s
------------------------------------------------------------

------------------------------------------------------------
          Begin self-consistency iteration #    2

  Date     :  20190722, Time     :  144425.511
------------------------------------------------------------
  Evaluating new KS density.
  Integration grid: deviation in total charge (<rho> - N_e) =   7.812417E-12
  Pulay mixing of updated and previous charge densities.

  Evaluating partitioned Hartree potential by multipole expansion.
  | Analytical far-field extrapolation by fixed multipoles:
  | Hartree multipole sum: apparent total charge =   0.551818E+00
  Summing up the Hartree potential.
  Time summed over all CPUs for potential: real work        0.096 s, elapsed        0.097 s
  | RMS charge density error from multipole expansion :   0.499240E-03

  Integrating Hamiltonian matrix: batch-based integration.
  Time summed over all CPUs for integration: real work        0.167 s, elapsed        0.168 s

  Updating Kohn-Sham eigenvalues, eigenvectors, occupation numbers, and Fermi level.
  Solving generalized eigenproblem
  Updating Kohn-Sham eigenvalues and eigenfunctions.
  Solving real generalised eigenvalue problem by standard LAPACK (fast)
  Determining occupation numbers for Kohn-Sham eigenstates.
  | Chemical potential (Fermi level) in eV                 : -.13092028E+02
  | Error in electron count due to remaining E_F inaccuracy: -.73185902E-12
  | Maximum occupation number of highest empty state:  0.00E+00

  Highest occupied state (VBM) at    -21.31573353 eV
  | Occupation number:      2.00000000

  Lowest unoccupied state (CBM) at   -13.08756887 eV
  | Occupation number:      0.52831380

  Overall HOMO-LUMO gap:      8.22816466 eV.

  Total energy components:
  | Sum of eigenvalues            :         -87.47611120 Ha       -2380.34609641 eV
  | XC energy correction          :         -16.54917118 Ha        -450.32586022 eV
  | XC potential correction       :          21.27064848 Ha         578.80379432 eV
  | Free-atom electrostatic energy:         -71.50995483 Ha       -1945.88487651 eV
  | Hartree energy correction     :           4.43974891 Ha         120.81171479 eV
  | Entropy correction            :          -0.00016499 Ha          -0.00448958 eV
  | ---------------------------
  | Total energy                  :        -149.82483982 Ha       -4076.94132404 eV
  | Total energy, T -> 0          :        -149.82500481 Ha       -4076.94581361 eV  <-- do not rely on this value for anything but (periodic) metals
  | Electronic free energy        :        -149.82516980 Ha       -4076.95030319 eV

  Derived energy quantities:
  | Kinetic energy                :         149.14691860 Ha        4058.49414889 eV
  | Electrostatic energy          :        -282.42258723 Ha       -7685.10961270 eV
  | Energy correction for multipole
  | error in Hartree potential    :          -0.00037145 Ha          -0.01010762 eV
  | Sum of eigenvalues per atom                           :       -1190.17304821 eV
  | Total energy (T->0) per atom                          :       -2038.47290681 eV  <-- do not rely on this value for anything but (periodic) metals
  | Electronic free energy per atom                       :       -2038.47515160 eV

  Self-consistency convergence accuracy:
  | Change of charge density      :  0.1326E+00
  | Change of sum of eigenvalues  : -0.7919E+02 eV
  | Change of total energy        :  0.2533E+01 eV

  End self-consistency iteration #     2       :  max(cpu_time)    wall_clock(cpu1)
  | Time for this iteration                    :        0.106 s           0.105 s
  | Charge density update                      :        0.030 s           0.030 s
  | Density mixing                             :        0.003 s           0.002 s
  | Hartree multipole update                   :        0.004 s           0.003 s
  | Hartree multipole summation                :        0.025 s           0.026 s
  | Integration                                :        0.043 s           0.042 s
  | Solution of K.-S. eqns.                    :        0.001 s           0.001 s
  | Total energy evaluation                    :        0.001 s           0.001 s
------------------------------------------------------------

------------------------------------------------------------
          Begin self-consistency iteration #    3

  Date     :  20190722, Time     :  144425.617
------------------------------------------------------------
  Evaluating new KS density.
  Integration grid: deviation in total charge (<rho> - N_e) =  -8.100187E-13
  Pulay mixing of updated and previous charge densities.

  Evaluating partitioned Hartree potential by multipole expansion.
  | Analytical far-field extrapolation by fixed multipoles:
  | Hartree multipole sum: apparent total charge =   0.839613E+00
  Summing up the Hartree potential.
  Time summed over all CPUs for potential: real work        0.095 s, elapsed        0.097 s
  | RMS charge density error from multipole expansion :   0.477255E-03

  Integrating Hamiltonian matrix: batch-based integration.
  Time summed over all CPUs for integration: real work        0.166 s, elapsed        0.169 s

  Updating Kohn-Sham eigenvalues, eigenvectors, occupation numbers, and Fermi level.
  Solving generalized eigenproblem
  Updating Kohn-Sham eigenvalues and eigenfunctions.
  Solving real generalised eigenvalue problem by standard LAPACK (fast)
  Determining occupation numbers for Kohn-Sham eigenstates.
  | Chemical potential (Fermi level) in eV                 : -.16118517E+02
  | Error in electron count due to remaining E_F inaccuracy: -.66300032E-09
  | Maximum occupation number of highest empty state:  0.00E+00

  Highest occupied state (VBM) at    -24.29340107 eV
  | Occupation number:      2.00000000

  Lowest unoccupied state (CBM) at   -16.11847618 eV
  | Occupation number:      0.99536641

  Overall HOMO-LUMO gap:      8.17492489 eV.

  Total energy components:
  | Sum of eigenvalues            :         -89.12019553 Ha       -2425.08390719 eV
  | XC energy correction          :         -16.46810151 Ha        -448.11984229 eV
  | XC potential correction       :          21.16436633 Ha         575.91170998 eV
  | Free-atom electrostatic energy:         -71.50995483 Ha       -1945.88487651 eV
  | Hartree energy correction     :           6.13669010 Ha         166.98783380 eV
  | Entropy correction            :          -0.00010555 Ha          -0.00287213 eV
  | ---------------------------
  | Total energy                  :        -149.79719544 Ha       -4076.18908222 eV
  | Total energy, T -> 0          :        -149.79730099 Ha       -4076.19195434 eV  <-- do not rely on this value for anything but (periodic) metals
  | Electronic free energy        :        -149.79740654 Ha       -4076.19482647 eV

  Derived energy quantities:
  | Kinetic energy                :         149.24071046 Ha        4061.04635551 eV
  | Electrostatic energy          :        -282.56980439 Ha       -7689.11559543 eV
  | Energy correction for multipole
  | error in Hartree potential    :          -0.00046621 Ha          -0.01268633 eV
  | Sum of eigenvalues per atom                           :       -1212.54195360 eV
  | Total energy (T->0) per atom                          :       -2038.09597717 eV  <-- do not rely on this value for anything but (periodic) metals
  | Electronic free energy per atom                       :       -2038.09741323 eV

  Self-consistency convergence accuracy:
  | Change of charge density      :  0.5969E-01
  | Change of sum of eigenvalues  : -0.4474E+02 eV
  | Change of total energy        :  0.7522E+00 eV

  End self-consistency iteration #     3       :  max(cpu_time)    wall_clock(cpu1)
  | Time for this iteration                    :        0.106 s           0.105 s
  | Charge density update                      :        0.030 s           0.030 s
  | Density mixing                             :        0.002 s           0.002 s
  | Hartree multipole update                   :        0.005 s           0.004 s
  | Hartree multipole summation                :        0.025 s           0.025 s
  | Integration                                :        0.043 s           0.042 s
  | Solution of K.-S. eqns.                    :        0.001 s           0.001 s
  | Total energy evaluation                    :        0.000 s           0.001 s
------------------------------------------------------------

------------------------------------------------------------
          Begin self-consistency iteration #    4

  Date     :  20190722, Time     :  144425.723
------------------------------------------------------------
  Evaluating new KS density.
  Integration grid: deviation in total charge (<rho> - N_e) =  -6.629968E-10
  Pulay mixing of updated and previous charge densities.

  Evaluating partitioned Hartree potential by multipole expansion.
  | Analytical far-field extrapolation by fixed multipoles:
  | Hartree multipole sum: apparent total charge =   0.102188E+01
  Summing up the Hartree potential.
  Time summed over all CPUs for potential: real work        0.095 s, elapsed        0.096 s
  | RMS charge density error from multipole expansion :   0.484839E-03

  Integrating Hamiltonian matrix: batch-based integration.
  Time summed over all CPUs for integration: real work        0.165 s, elapsed        0.168 s

  Updating Kohn-Sham eigenvalues, eigenvectors, occupation numbers, and Fermi level.
  Solving generalized eigenproblem
  Updating Kohn-Sham eigenvalues and eigenfunctions.
  Solving real generalised eigenvalue problem by standard LAPACK (fast)
  Determining occupation numbers for Kohn-Sham eigenstates.
  | Chemical potential (Fermi level) in eV                 : -.17980064E+02
  | Error in electron count due to remaining E_F inaccuracy: -.22601121E-09
  | Maximum occupation number of highest empty state:  0.00E+00

  Highest occupied state (VBM) at    -26.13409597 eV
  | Occupation number:      2.00000000

  Lowest unoccupied state (CBM) at   -17.97645823 eV
  | Occupation number:      0.61009090

  Overall HOMO-LUMO gap:      8.15763774 eV.

  Total energy components:
  | Sum of eigenvalues            :         -90.12750304 Ha       -2452.49413930 eV
  | XC energy correction          :         -16.42239138 Ha        -446.87600632 eV
  | XC potential correction       :          21.10451962 Ha         574.28319795 eV
  | Free-atom electrostatic energy:         -71.50995483 Ha       -1945.88487651 eV
  | Hartree energy correction     :           7.16172712 Ha         194.88051041 eV
  | Entropy correction            :          -0.00016266 Ha          -0.00442629 eV
  | ---------------------------
  | Total energy                  :        -149.79360252 Ha       -4076.09131377 eV
  | Total energy, T -> 0          :        -149.79376518 Ha       -4076.09574006 eV  <-- do not rely on this value for anything but (periodic) metals
  | Electronic free energy        :        -149.79392784 Ha       -4076.10016635 eV

  Derived energy quantities:
  | Kinetic energy                :         149.30433145 Ha        4062.77757060 eV
  | Electrostatic energy          :        -282.67554259 Ha       -7691.99287805 eV
  | Energy correction for multipole
  | error in Hartree potential    :          -0.00053305 Ha          -0.01450515 eV
  | Sum of eigenvalues per atom                           :       -1226.24706965 eV
  | Total energy (T->0) per atom                          :       -2038.04787003 eV  <-- do not rely on this value for anything but (periodic) metals
  | Electronic free energy per atom                       :       -2038.05008318 eV

  Self-consistency convergence accuracy:
  | Change of charge density      :  0.1758E+00
  | Change of sum of eigenvalues  : -0.2741E+02 eV
  | Change of total energy        :  0.9777E-01 eV

  End self-consistency iteration #     4       :  max(cpu_time)    wall_clock(cpu1)
  | Time for this iteration                    :        0.104 s           0.105 s
  | Charge density update                      :        0.030 s           0.030 s
  | Density mixing                             :        0.002 s           0.002 s
  | Hartree multipole update                   :        0.004 s           0.004 s
  | Hartree multipole summation                :        0.025 s           0.024 s
  | Integration                                :        0.043 s           0.042 s
  | Solution of K.-S. eqns.                    :        0.001 s           0.002 s
  | Total energy evaluation                    :        0.000 s           0.001 s
------------------------------------------------------------

------------------------------------------------------------
          Begin self-consistency iteration #    5

  Date     :  20190722, Time     :  144425.829
------------------------------------------------------------
  Evaluating new KS density.
  Integration grid: deviation in total charge (<rho> - N_e) =  -2.258318E-10
  Pulay mixing of updated and previous charge densities.

  Evaluating partitioned Hartree potential by multipole expansion.
  | Analytical far-field extrapolation by fixed multipoles:
  | Hartree multipole sum: apparent total charge =   0.993436E+00
  Summing up the Hartree potential.
  Time summed over all CPUs for potential: real work        0.097 s, elapsed        0.097 s
  | RMS charge density error from multipole expansion :   0.482533E-03

  Integrating Hamiltonian matrix: batch-based integration.
  Time summed over all CPUs for integration: real work        0.165 s, elapsed        0.168 s

  Updating Kohn-Sham eigenvalues, eigenvectors, occupation numbers, and Fermi level.
  Solving generalized eigenproblem
  Updating Kohn-Sham eigenvalues and eigenfunctions.
  Solving real generalised eigenvalue problem by standard LAPACK (fast)
  Determining occupation numbers for Kohn-Sham eigenstates.
  | Chemical potential (Fermi level) in eV                 : -.17479398E+02
  | Error in electron count due to remaining E_F inaccuracy: -.71618089E-09
  | Maximum occupation number of highest empty state:  0.00E+00

  Highest occupied state (VBM) at    -25.64684570 eV
  | Occupation number:      2.00000000

  Lowest unoccupied state (CBM) at   -17.47530431 eV
  | Occupation number:      0.56260816

  Overall HOMO-LUMO gap:      8.17154140 eV.

  Total energy components:
  | Sum of eigenvalues            :         -89.82275606 Ha       -2444.20155207 eV
  | XC energy correction          :         -16.44796243 Ha        -447.57182987 eV
  | XC potential correction       :          21.13800980 Ha         575.19451218 eV
  | Free-atom electrostatic energy:         -71.50995483 Ha       -1945.88487651 eV
  | Hartree energy correction     :           6.84955745 Ha         186.38594151 eV
  | Entropy correction            :          -0.00016435 Ha          -0.00447220 eV
  | ---------------------------
  | Total energy                  :        -149.79310607 Ha       -4076.07780474 eV
  | Total energy, T -> 0          :        -149.79327042 Ha       -4076.08227694 eV  <-- do not rely on this value for anything but (periodic) metals
  | Electronic free energy        :        -149.79343477 Ha       -4076.08674914 eV

  Derived energy quantities:
  | Kinetic energy                :         149.43777121 Ha        4066.40865125 eV
  | Electrostatic energy          :        -282.78291485 Ha       -7694.91462613 eV
  | Energy correction for multipole
  | error in Hartree potential    :          -0.00055372 Ha          -0.01506739 eV
  | Sum of eigenvalues per atom                           :       -1222.10077603 eV
  | Total energy (T->0) per atom                          :       -2038.04113847 eV  <-- do not rely on this value for anything but (periodic) metals
  | Electronic free energy per atom                       :       -2038.04337457 eV

  Self-consistency convergence accuracy:
  | Change of charge density      :  0.4339E-01
  | Change of sum of eigenvalues  :  0.8293E+01 eV
  | Change of total energy        :  0.1351E-01 eV

  End self-consistency iteration #     5       :  max(cpu_time)    wall_clock(cpu1)
  | Time for this iteration                    :        0.105 s           0.105 s
  | Charge density update                      :        0.029 s           0.029 s
  | Density mixing                             :        0.002 s           0.003 s
  | Hartree multipole update                   :        0.004 s           0.003 s
  | Hartree multipole summation                :        0.025 s           0.025 s
  | Integration                                :        0.043 s           0.042 s
  | Solution of K.-S. eqns.                    :        0.001 s           0.002 s
  | Total energy evaluation                    :        0.000 s           0.001 s
------------------------------------------------------------

------------------------------------------------------------
          Begin self-consistency iteration #    6

  Date     :  20190722, Time     :  144425.935
------------------------------------------------------------
  Evaluating new KS density.
  Integration grid: deviation in total charge (<rho> - N_e) =  -7.161418E-10
  Pulay mixing of updated and previous charge densities.

  Evaluating partitioned Hartree potential by multipole expansion.
  | Analytical far-field extrapolation by fixed multipoles:
  | Hartree multipole sum: apparent total charge =   0.998894E+00
  Summing up the Hartree potential.
  Time summed over all CPUs for potential: real work        0.095 s, elapsed        0.096 s
  | RMS charge density error from multipole expansion :   0.493992E-03

  Integrating Hamiltonian matrix: batch-based integration.
  Time summed over all CPUs for integration: real work        0.165 s, elapsed        0.168 s

  Updating Kohn-Sham eigenvalues, eigenvectors, occupation numbers, and Fermi level.
  Solving generalized eigenproblem
  Updating Kohn-Sham eigenvalues and eigenfunctions.
  Solving real generalised eigenvalue problem by standard LAPACK (fast)
  Determining occupation numbers for Kohn-Sham eigenstates.
  | Chemical potential (Fermi level) in eV                 : -.17450872E+02
  | Error in electron count due to remaining E_F inaccuracy: -.30910741E-09
  | Maximum occupation number of highest empty state:  0.00E+00

  Highest occupied state (VBM) at    -25.61363452 eV
  | Occupation number:      2.00000000

  Lowest unoccupied state (CBM) at   -17.45076211 eV
  | Occupation number:      0.98758322

  Overall HOMO-LUMO gap:      8.16287241 eV.

  Total energy components:
  | Sum of eigenvalues            :         -89.80067020 Ha       -2443.60056520 eV
  | XC energy correction          :         -16.45291708 Ha        -447.70665280 eV
  | XC potential correction       :          21.14460323 Ha         575.37392851 eV
  | Free-atom electrostatic energy:         -71.50995483 Ha       -1945.88487651 eV
  | Hartree energy correction     :           6.82553675 Ha         185.73230483 eV
  | Entropy correction            :          -0.00010821 Ha          -0.00294453 eV
  | ---------------------------
  | Total energy                  :        -149.79340214 Ha       -4076.08586117 eV
  | Total energy, T -> 0          :        -149.79351035 Ha       -4076.08880570 eV  <-- do not rely on this value for anything but (periodic) metals
  | Electronic free energy        :        -149.79361856 Ha       -4076.09175023 eV

  Derived energy quantities:
  | Kinetic energy                :         149.45415390 Ha        4066.85444698 eV
  | Electrostatic energy          :        -282.79463896 Ha       -7695.23365535 eV
  | Energy correction for multipole
  | error in Hartree potential    :          -0.00054527 Ha          -0.01483758 eV
  | Sum of eigenvalues per atom                           :       -1221.80028260 eV
  | Total energy (T->0) per atom                          :       -2038.04440285 eV  <-- do not rely on this value for anything but (periodic) metals
  | Electronic free energy per atom                       :       -2038.04587511 eV

  Self-consistency convergence accuracy:
  | Change of charge density      :  0.2258E-01
  | Change of sum of eigenvalues  :  0.6010E+00 eV
  | Change of total energy        : -0.8056E-02 eV

  End self-consistency iteration #     6       :  max(cpu_time)    wall_clock(cpu1)
  | Time for this iteration                    :        0.105 s           0.105 s
  | Charge density update                      :        0.030 s           0.030 s
  | Density mixing                             :        0.003 s           0.002 s
  | Hartree multipole update                   :        0.004 s           0.004 s
  | Hartree multipole summation                :        0.026 s           0.024 s
  | Integration                                :        0.042 s           0.042 s
  | Solution of K.-S. eqns.                    :        0.001 s           0.002 s
  | Total energy evaluation                    :        0.001 s           0.001 s
------------------------------------------------------------

------------------------------------------------------------
          Begin self-consistency iteration #    7

  Date     :  20190722, Time     :  144426.041
------------------------------------------------------------
  Evaluating new KS density.
  Integration grid: deviation in total charge (<rho> - N_e) =  -3.091571E-10
  Pulay mixing of updated and previous charge densities.

  Evaluating partitioned Hartree potential by multipole expansion.
  | Analytical far-field extrapolation by fixed multipoles:
  | Hartree multipole sum: apparent total charge =   0.999485E+00
  Summing up the Hartree potential.
  Time summed over all CPUs for potential: real work        0.097 s, elapsed        0.098 s
  | RMS charge density error from multipole expansion :   0.493979E-03

  Integrating Hamiltonian matrix: batch-based integration.
  Time summed over all CPUs for integration: real work        0.168 s, elapsed        0.170 s

  Updating Kohn-Sham eigenvalues, eigenvectors, occupation numbers, and Fermi level.
  Solving generalized eigenproblem
  Updating Kohn-Sham eigenvalues and eigenfunctions.
  Solving real generalised eigenvalue problem by standard LAPACK (fast)
  Determining occupation numbers for Kohn-Sham eigenstates.
  | Chemical potential (Fermi level) in eV                 : -.17448645E+02
  | Error in electron count due to remaining E_F inaccuracy: -.17179200E-08
  | Maximum occupation number of highest empty state:  0.00E+00

  Highest occupied state (VBM) at    -25.61597677 eV
  | Occupation number:      2.00000000

  Lowest unoccupied state (CBM) at   -17.44475676 eV
  | Occupation number:      0.58236601

  Overall HOMO-LUMO gap:      8.17122000 eV.

  Total energy components:
  | Sum of eigenvalues            :         -89.80101319 Ha       -2443.60989848 eV
  | XC energy correction          :         -16.45304574 Ha        -447.71015382 eV
  | XC potential correction       :          21.14477709 Ha         575.37865944 eV
  | Free-atom electrostatic energy:         -71.50995483 Ha       -1945.88487651 eV
  | Hartree energy correction     :           6.82614972 Ha         185.74898482 eV
  | Entropy correction            :          -0.00016376 Ha          -0.00445620 eV
  | ---------------------------
  | Total energy                  :        -149.79308695 Ha       -4076.07728454 eV
  | Total energy, T -> 0          :        -149.79325072 Ha       -4076.08174074 eV  <-- do not rely on this value for anything but (periodic) metals
  | Electronic free energy        :        -149.79341448 Ha       -4076.08619694 eV

  Derived energy quantities:
  | Kinetic energy                :         149.45549715 Ha        4066.89099858 eV
  | Electrostatic energy          :        -282.79553836 Ha       -7695.25812930 eV
  | Energy correction for multipole
  | error in Hartree potential    :          -0.00054507 Ha          -0.01483222 eV
  | Sum of eigenvalues per atom                           :       -1221.80494924 eV
  | Total energy (T->0) per atom                          :       -2038.04087037 eV  <-- do not rely on this value for anything but (periodic) metals
  | Electronic free energy per atom                       :       -2038.04309847 eV

  Self-consistency convergence accuracy:
  | Change of charge density      :  0.1702E+00
  | Change of sum of eigenvalues  : -0.9333E-02 eV
  | Change of total energy        :  0.8577E-02 eV

  End self-consistency iteration #     7       :  max(cpu_time)    wall_clock(cpu1)
  | Time for this iteration                    :        0.120 s           0.121 s
  | Charge density update                      :        0.034 s           0.035 s
  | Density mixing                             :        0.006 s           0.005 s
  | Hartree multipole update                   :        0.005 s           0.005 s
  | Hartree multipole summation                :        0.026 s           0.025 s
  | Integration                                :        0.043 s           0.043 s
  | Solution of K.-S. eqns.                    :        0.005 s           0.005 s
  | Total energy evaluation                    :        0.001 s           0.001 s
------------------------------------------------------------

------------------------------------------------------------
          Begin self-consistency iteration #    8

  Date     :  20190722, Time     :  144426.164
------------------------------------------------------------
  Evaluating new KS density.
  Integration grid: deviation in total charge (<rho> - N_e) =  -1.718039E-09
  Pulay mixing of updated and previous charge densities.

  Evaluating partitioned Hartree potential by multipole expansion.
  | Analytical far-field extrapolation by fixed multipoles:
  | Hartree multipole sum: apparent total charge =   0.999621E+00
  Summing up the Hartree potential.
  Time summed over all CPUs for potential: real work        0.096 s, elapsed        0.096 s
  | RMS charge density error from multipole expansion :   0.494641E-03

  Integrating Hamiltonian matrix: batch-based integration.
  Time summed over all CPUs for integration: real work        0.165 s, elapsed        0.168 s

  Updating Kohn-Sham eigenvalues, eigenvectors, occupation numbers, and Fermi level.
  Solving generalized eigenproblem
  Updating Kohn-Sham eigenvalues and eigenfunctions.
  Solving real generalised eigenvalue problem by standard LAPACK (fast)
  Determining occupation numbers for Kohn-Sham eigenstates.
  | Chemical potential (Fermi level) in eV                 : -.17445313E+02
  | Error in electron count due to remaining E_F inaccuracy: 0.23092639E-13
  | Maximum occupation number of highest empty state:  0.00E+00

  Highest occupied state (VBM) at    -25.61330002 eV
  | Occupation number:      2.00000000

  Lowest unoccupied state (CBM) at   -17.44217244 eV
  | Occupation number:      0.65690713

  Overall HOMO-LUMO gap:      8.17112759 eV.

  Total energy components:
  | Sum of eigenvalues            :         -89.79904621 Ha       -2443.55637427 eV
  | XC energy correction          :         -16.45327366 Ha        -447.71635588 eV
  | XC potential correction       :          21.14508470 Ha         575.38703000 eV
  | Free-atom electrostatic energy:         -71.50995483 Ha       -1945.88487651 eV
  | Hartree energy correction     :           6.82408810 Ha         185.69288510 eV
  | Entropy correction            :          -0.00016007 Ha          -0.00435570 eV
  | ---------------------------
  | Total energy                  :        -149.79310191 Ha       -4076.07769155 eV
  | Total energy, T -> 0          :        -149.79326198 Ha       -4076.08204726 eV  <-- do not rely on this value for anything but (periodic) metals
  | Electronic free energy        :        -149.79342205 Ha       -4076.08640296 eV

  Derived energy quantities:
  | Kinetic energy                :         149.45509343 Ha        4066.88001283 eV
  | Electrostatic energy          :        -282.79492168 Ha       -7695.24134850 eV
  | Energy correction for multipole
  | error in Hartree potential    :          -0.00054408 Ha          -0.01480519 eV
  | Sum of eigenvalues per atom                           :       -1221.77818714 eV
  | Total energy (T->0) per atom                          :       -2038.04102363 eV  <-- do not rely on this value for anything but (periodic) metals
  | Electronic free energy per atom                       :       -2038.04320148 eV

  Self-consistency convergence accuracy:
  | Change of charge density      :  0.2832E-01
  | Change of sum of eigenvalues  :  0.5352E-01 eV
  | Change of total energy        : -0.4070E-03 eV

  End self-consistency iteration #     8       :  max(cpu_time)    wall_clock(cpu1)
  | Time for this iteration                    :        0.106 s           0.105 s
  | Charge density update                      :        0.030 s           0.029 s
  | Density mixing                             :        0.003 s           0.003 s
  | Hartree multipole update                   :        0.004 s           0.004 s
  | Hartree multipole summation                :        0.024 s           0.024 s
  | Integration                                :        0.043 s           0.043 s
  | Solution of K.-S. eqns.                    :        0.001 s           0.001 s
  | Total energy evaluation                    :        0.000 s           0.001 s
------------------------------------------------------------

------------------------------------------------------------
          Begin self-consistency iteration #    9

  Date     :  20190722, Time     :  144426.270
------------------------------------------------------------
  Evaluating new KS density.
  Integration grid: deviation in total charge (<rho> - N_e) =   1.065814E-13
  Pulay mixing of updated and previous charge densities.

  Evaluating partitioned Hartree potential by multipole expansion.
  | Analytical far-field extrapolation by fixed multipoles:
  | Hartree multipole sum: apparent total charge =   0.999746E+00
  Summing up the Hartree potential.
  Time summed over all CPUs for potential: real work        0.096 s, elapsed        0.096 s
  | RMS charge density error from multipole expansion :   0.494821E-03

  Integrating Hamiltonian matrix: batch-based integration.
  Time summed over all CPUs for integration: real work        0.165 s, elapsed        0.168 s

  Updating Kohn-Sham eigenvalues, eigenvectors, occupation numbers, and Fermi level.
  Solving generalized eigenproblem
  Updating Kohn-Sham eigenvalues and eigenfunctions.
  Solving real generalised eigenvalue problem by standard LAPACK (fast)
  Determining occupation numbers for Kohn-Sham eigenstates.
  | Chemical potential (Fermi level) in eV                 : -.17444602E+02
  | Error in electron count due to remaining E_F inaccuracy: 0.30198066E-13
  | Maximum occupation number of highest empty state:  0.00E+00

  Highest occupied state (VBM) at    -25.61294419 eV
  | Occupation number:      2.00000000

  Lowest unoccupied state (CBM) at   -17.44072858 eV
  | Occupation number:      0.58384273

  Overall HOMO-LUMO gap:      8.17221561 eV.

  Total energy components:
  | Sum of eigenvalues            :         -89.79858125 Ha       -2443.54372184 eV
  | XC energy correction          :         -16.45336210 Ha        -447.71876247 eV
  | XC potential correction       :          21.14520313 Ha         575.39025276 eV
  | Free-atom electrostatic energy:         -71.50995483 Ha       -1945.88487651 eV
  | Hartree energy correction     :           6.82360812 Ha         185.67982434 eV
  | Entropy correction            :          -0.00016371 Ha          -0.00445482 eV
  | ---------------------------
  | Total energy                  :        -149.79308692 Ha       -4076.07728372 eV
  | Total energy, T -> 0          :        -149.79325064 Ha       -4076.08173854 eV  <-- do not rely on this value for anything but (periodic) metals
  | Electronic free energy        :        -149.79341435 Ha       -4076.08619337 eV

  Derived energy quantities:
  | Kinetic energy                :         149.45538618 Ha        4066.88797905 eV
  | Electrostatic energy          :        -282.79511101 Ha       -7695.24650029 eV
  | Energy correction for multipole
  | error in Hartree potential    :          -0.00054390 Ha          -0.01480029 eV
  | Sum of eigenvalues per atom                           :       -1221.77186092 eV
  | Total energy (T->0) per atom                          :       -2038.04086927 eV  <-- do not rely on this value for anything but (periodic) metals
  | Electronic free energy per atom                       :       -2038.04309668 eV

  Self-consistency convergence accuracy:
  | Change of charge density      :  0.5410E-01
  | Change of sum of eigenvalues  :  0.1265E-01 eV
  | Change of total energy        :  0.4078E-03 eV

  End self-consistency iteration #     9       :  max(cpu_time)    wall_clock(cpu1)
  | Time for this iteration                    :        0.105 s           0.105 s
  | Charge density update                      :        0.030 s           0.029 s
  | Density mixing                             :        0.003 s           0.003 s
  | Hartree multipole update                   :        0.004 s           0.004 s
  | Hartree multipole summation                :        0.026 s           0.024 s
  | Integration                                :        0.042 s           0.043 s
  | Solution of K.-S. eqns.                    :        0.001 s           0.001 s
  | Total energy evaluation                    :        0.001 s           0.001 s
------------------------------------------------------------

------------------------------------------------------------
          Begin self-consistency iteration #   10

  Date     :  20190722, Time     :  144426.377
------------------------------------------------------------
  Evaluating new KS density.
  Integration grid: deviation in total charge (<rho> - N_e) =  -3.197442E-14
  Pulay mixing of updated and previous charge densities.

  Evaluating partitioned Hartree potential by multipole expansion.
  | Analytical far-field extrapolation by fixed multipoles:
  | Hartree multipole sum: apparent total charge =   0.999990E+00
  Summing up the Hartree potential.
  Time summed over all CPUs for potential: real work        0.095 s, elapsed        0.096 s
  | RMS charge density error from multipole expansion :   0.495294E-03

  Integrating Hamiltonian matrix: batch-based integration.
  Time summed over all CPUs for integration: real work        0.166 s, elapsed        0.168 s

  Updating Kohn-Sham eigenvalues, eigenvectors, occupation numbers, and Fermi level.
  Solving generalized eigenproblem
  Updating Kohn-Sham eigenvalues and eigenfunctions.
  Solving real generalised eigenvalue problem by standard LAPACK (fast)
  Determining occupation numbers for Kohn-Sham eigenstates.
  | Chemical potential (Fermi level) in eV                 : -.17442047E+02
  | Error in electron count due to remaining E_F inaccuracy: -.17763568E-13
  | Maximum occupation number of highest empty state:  0.00E+00

  Highest occupied state (VBM) at    -25.61092362 eV
  | Occupation number:      2.00000000

  Lowest unoccupied state (CBM) at   -17.43881331 eV
  | Occupation number:      0.64741951

  Overall HOMO-LUMO gap:      8.17211032 eV.

  Total energy components:
  | Sum of eigenvalues            :         -89.79675175 Ha       -2443.49393871 eV
  | XC energy correction          :         -16.45364615 Ha        -447.72649191 eV
  | XC potential correction       :          21.14558130 Ha         575.40054335 eV
  | Free-atom electrostatic energy:         -71.50995483 Ha       -1945.88487651 eV
  | Hartree energy correction     :           6.82167212 Ha         185.62714300 eV
  | Entropy correction            :          -0.00016067 Ha          -0.00437207 eV
  | ---------------------------
  | Total energy                  :        -149.79309931 Ha       -4076.07762078 eV
  | Total energy, T -> 0          :        -149.79325998 Ha       -4076.08199285 eV  <-- do not rely on this value for anything but (periodic) metals
  | Electronic free energy        :        -149.79342065 Ha       -4076.08636493 eV

  Derived energy quantities:
  | Kinetic energy                :         149.45647635 Ha        4066.91764387 eV
  | Electrostatic energy          :        -282.79592950 Ha       -7695.26877275 eV
  | Energy correction for multipole
  | error in Hartree potential    :          -0.00054355 Ha          -0.01479077 eV
  | Sum of eigenvalues per atom                           :       -1221.74696936 eV
  | Total energy (T->0) per atom                          :       -2038.04099643 eV  <-- do not rely on this value for anything but (periodic) metals
  | Electronic free energy per atom                       :       -2038.04318246 eV

  Self-consistency convergence accuracy:
  | Change of charge density      :  0.2891E-01
  | Change of sum of eigenvalues  :  0.4978E-01 eV
  | Change of total energy        : -0.3371E-03 eV

  End self-consistency iteration #    10       :  max(cpu_time)    wall_clock(cpu1)
  | Time for this iteration                    :        0.106 s           0.106 s
  | Charge density update                      :        0.030 s           0.029 s
  | Density mixing                             :        0.003 s           0.003 s
  | Hartree multipole update                   :        0.005 s           0.004 s
  | Hartree multipole summation                :        0.025 s           0.025 s
  | Integration                                :        0.042 s           0.042 s
  | Solution of K.-S. eqns.                    :        0.001 s           0.002 s
  | Total energy evaluation                    :        0.001 s           0.001 s
------------------------------------------------------------

------------------------------------------------------------
          Begin self-consistency iteration #   11

  Date     :  20190722, Time     :  144426.484
------------------------------------------------------------
  Evaluating new KS density.
  Integration grid: deviation in total charge (<rho> - N_e) =   5.506706E-14
  Pulay mixing of updated and previous charge densities.

  Evaluating partitioned Hartree potential by multipole expansion.
  | Analytical far-field extrapolation by fixed multipoles:
  | Hartree multipole sum: apparent total charge =   0.100000E+01
  Summing up the Hartree potential.
  Time summed over all CPUs for potential: real work        0.096 s, elapsed        0.096 s
  | RMS charge density error from multipole expansion :   0.495307E-03

  Integrating Hamiltonian matrix: batch-based integration.
  Time summed over all CPUs for integration: real work        0.166 s, elapsed        0.168 s

  Updating Kohn-Sham eigenvalues, eigenvectors, occupation numbers, and Fermi level.
  Solving generalized eigenproblem
  Updating Kohn-Sham eigenvalues and eigenfunctions.
  Solving real generalised eigenvalue problem by standard LAPACK (fast)
  Determining occupation numbers for Kohn-Sham eigenstates.
  | Chemical potential (Fermi level) in eV                 : -.17441664E+02
  | Error in electron count due to remaining E_F inaccuracy: 0.15276669E-12
  | Maximum occupation number of highest empty state:  0.00E+00

  Highest occupied state (VBM) at    -25.61068377 eV
  | Occupation number:      2.00000000

  Lowest unoccupied state (CBM) at   -17.43731500 eV
  | Occupation number:      0.53851190

  Overall HOMO-LUMO gap:      8.17336878 eV.

  Total energy components:
  | Sum of eigenvalues            :         -89.79657837 Ha       -2443.48922093 eV
  | XC energy correction          :         -16.45366809 Ha        -447.72708875 eV
  | XC potential correction       :          21.14561075 Ha         575.40134449 eV
  | Free-atom electrostatic energy:         -71.50995483 Ha       -1945.88487651 eV
  | Hartree energy correction     :           6.82150831 Ha         185.62268544 eV
  | Entropy correction            :          -0.00016485 Ha          -0.00448578 eV
  | ---------------------------
  | Total energy                  :        -149.79308224 Ha       -4076.07715626 eV
  | Total energy, T -> 0          :        -149.79324709 Ha       -4076.08164204 eV  <-- do not rely on this value for anything but (periodic) metals
  | Electronic free energy        :        -149.79341194 Ha       -4076.08612783 eV

  Derived energy quantities:
  | Kinetic energy                :         149.45653162 Ha        4066.91914784 eV
  | Electrostatic energy          :        -282.79594577 Ha       -7695.26921535 eV
  | Energy correction for multipole
  | error in Hartree potential    :          -0.00054351 Ha          -0.01478960 eV
  | Sum of eigenvalues per atom                           :       -1221.74461047 eV
  | Total energy (T->0) per atom                          :       -2038.04082102 eV  <-- do not rely on this value for anything but (periodic) metals
  | Electronic free energy per atom                       :       -2038.04306391 eV

  Self-consistency convergence accuracy:
  | Change of charge density      :  0.5077E-01
  | Change of sum of eigenvalues  :  0.4718E-02 eV
  | Change of total energy        :  0.4645E-03 eV

  End self-consistency iteration #    11       :  max(cpu_time)    wall_clock(cpu1)
  | Time for this iteration                    :        0.105 s           0.105 s
  | Charge density update                      :        0.029 s           0.029 s
  | Density mixing                             :        0.003 s           0.003 s
  | Hartree multipole update                   :        0.004 s           0.004 s
  | Hartree multipole summation                :        0.026 s           0.024 s
  | Integration                                :        0.043 s           0.043 s
  | Solution of K.-S. eqns.                    :        0.001 s           0.001 s
  | Total energy evaluation                    :        0.000 s           0.001 s
------------------------------------------------------------

------------------------------------------------------------
          Begin self-consistency iteration #   12

  Date     :  20190722, Time     :  144426.591
------------------------------------------------------------
  Evaluating new KS density.
  Integration grid: deviation in total charge (<rho> - N_e) =   8.526513E-14
  Pulay mixing of updated and previous charge densities.

  Evaluating partitioned Hartree potential by multipole expansion.
  | Analytical far-field extrapolation by fixed multipoles:
  | Hartree multipole sum: apparent total charge =   0.999996E+00
  Summing up the Hartree potential.
  Time summed over all CPUs for potential: real work        0.096 s, elapsed        0.096 s
  | RMS charge density error from multipole expansion :   0.495327E-03

  Integrating Hamiltonian matrix: batch-based integration.
  Time summed over all CPUs for integration: real work        0.165 s, elapsed        0.168 s

  Updating Kohn-Sham eigenvalues, eigenvectors, occupation numbers, and Fermi level.
  Solving generalized eigenproblem
  Updating Kohn-Sham eigenvalues and eigenfunctions.
  Solving real generalised eigenvalue problem by standard LAPACK (fast)
  Determining occupation numbers for Kohn-Sham eigenstates.
  | Chemical potential (Fermi level) in eV                 : -.17441359E+02
  | Error in electron count due to remaining E_F inaccuracy: 0.27533531E-12
  | Maximum occupation number of highest empty state:  0.00E+00

  Highest occupied state (VBM) at    -25.61035079 eV
  | Occupation number:      2.00000000

  Lowest unoccupied state (CBM) at   -17.43665224 eV
  | Occupation number:      0.50561059

  Overall HOMO-LUMO gap:      8.17369855 eV.

  Total energy components:
  | Sum of eigenvalues            :         -89.79641065 Ha       -2443.48465683 eV
  | XC energy correction          :         -16.45368645 Ha        -447.72758853 eV
  | XC potential correction       :          21.14563522 Ha         575.40201048 eV
  | Free-atom electrostatic energy:         -71.50995483 Ha       -1945.88487651 eV
  | Hartree energy correction     :           6.82133567 Ha         185.61798784 eV
  | Entropy correction            :          -0.00016515 Ha          -0.00449386 eV
  | ---------------------------
  | Total energy                  :        -149.79308104 Ha       -4076.07712355 eV
  | Total energy, T -> 0          :        -149.79324618 Ha       -4076.08161741 eV  <-- do not rely on this value for anything but (periodic) metals
[...]
  | Total energy (T->0) per atom                          :       -2038.04080844 eV  <-- do not rely on this value for anything but (periodic) metals
  | Electronic free energy per atom                       :       -2038.04305546 eV

  Self-consistency convergence accuracy:
  | Change of charge density      :  0.1037E-05
  | Change of sum of eigenvalues  :  0.4279E-07 eV
  | Change of total energy        : -0.1547E-11 eV

  Electronic self-consistency reached - switching on the force computation.

  End self-consistency iteration #    17       :  max(cpu_time)    wall_clock(cpu1)
  | Time for this iteration                    :        0.105 s           0.106 s
  | Charge density & force component update    :        0.029 s           0.029 s
  | Density mixing                             :        0.003 s           0.003 s
  | Hartree multipole update                   :        0.005 s           0.004 s
  | Hartree multipole summation                :        0.024 s           0.025 s
  | Integration                                :        0.043 s           0.042 s
  | Solution of K.-S. eqns.                    :        0.001 s           0.001 s
  | Total energy evaluation                    :        0.001 s           0.001 s
------------------------------------------------------------

------------------------------------------------------------
          Begin self-consistency iteration #   18

  Date     :  20190722, Time     :  144427.231
------------------------------------------------------------
  Evaluating new KS density.
  Integration grid: deviation in total charge (<rho> - N_e) =   2.646772E-13
  Pulay mixing of updated and previous charge densities.

  Evaluating partitioned Hartree potential by multipole expansion.
  | Analytical far-field extrapolation by fixed multipoles:
  | Hartree multipole sum: apparent total charge =   0.999999E+00
  Summing up the Hartree potential.
  Time summed over all CPUs for potential: real work        0.254 s, elapsed        0.256 s
  | RMS charge density error from multipole expansion :   0.495332E-03

  Integrating Hamiltonian matrix: batch-based integration.
  Time summed over all CPUs for integration: real work        0.166 s, elapsed        0.168 s

  Updating Kohn-Sham eigenvalues, eigenvectors, occupation numbers, and Fermi level.
  Solving generalized eigenproblem
  Updating Kohn-Sham eigenvalues and eigenfunctions.
  Solving real generalised eigenvalue problem by standard LAPACK (fast)
  Determining occupation numbers for Kohn-Sham eigenstates.
  | Chemical potential (Fermi level) in eV                 : -.17441308E+02
  | Error in electron count due to remaining E_F inaccuracy: -.15987212E-13
  | Maximum occupation number of highest empty state:  0.00E+00

  Highest occupied state (VBM) at    -25.61029572 eV
  | Occupation number:      2.00000000

  Lowest unoccupied state (CBM) at   -17.43653820 eV
  | Occupation number:      0.50000013

  Overall HOMO-LUMO gap:      8.17375751 eV.

  Total energy components:
  | Sum of eigenvalues            :         -89.79637964 Ha       -2443.48381314 eV
  | XC energy correction          :         -16.45369160 Ha        -447.72772870 eV
  | XC potential correction       :          21.14564211 Ha         575.40219807 eV
  | Free-atom electrostatic energy:         -71.50995483 Ha       -1945.88487651 eV
  | Hartree energy correction     :           6.82130295 Ha         185.61709743 eV
  | Entropy correction            :          -0.00016515 Ha          -0.00449404 eV
  | ---------------------------
  | Total energy                  :        -149.79308101 Ha       -4076.07712284 eV
  | Total energy, T -> 0          :        -149.79324616 Ha       -4076.08161688 eV  <-- do not rely on this value for anything but (periodic) metals
  | Electronic free energy        :        -149.79341132 Ha       -4076.08611092 eV

  Derived energy quantities:
  | Kinetic energy                :         149.45658010 Ha        4066.92046708 eV
  | Electrostatic energy          :        -282.79596950 Ha       -7695.26986122 eV
  | Energy correction for multipole
  | error in Hartree potential    :          -0.00054343 Ha          -0.01478739 eV
  | Sum of eigenvalues per atom                           :       -1221.74190657 eV
  | Total energy (T->0) per atom                          :       -2038.04080844 eV  <-- do not rely on this value for anything but (periodic) metals
  | Electronic free energy per atom                       :       -2038.04305546 eV

  atomic forces [eV/Ang]:
  -----------------------
  atom #    1
   Hellmann-Feynman              :  0.347306E-01 -0.603322E-11 -0.155921E+02
   Ionic forces                  :  0.000000E+00  0.000000E+00  0.000000E+00
   Multipole                     :  0.133110E-03  0.207258E-12 -0.593844E-01
   Pulay + GGA                   :  0.000000E+00  0.000000E+00  0.000000E+00
   ----------------------------------------------------------------
   Total forces(   1)            :  0.348637E-01 -0.582597E-11 -0.156515E+02
  atom #    2
   Hellmann-Feynman              : -0.347306E-01  0.581764E-11  0.155921E+02
   Ionic forces                  :  0.000000E+00  0.000000E+00  0.000000E+00
   Multipole                     : -0.133110E-03 -0.612832E-13  0.593844E-01
   Pulay + GGA                   :  0.000000E+00  0.000000E+00  0.000000E+00
   ----------------------------------------------------------------
   Total forces(   2)            : -0.348637E-01  0.575636E-11  0.156515E+02


  Self-consistency convergence accuracy:
  | Change of charge density      :  0.4454E-07
  | Change of sum of eigenvalues  :  0.7551E-06 eV
  | Change of total energy        :  0.6187E-11 eV
  | Change of forces              :  0.1565E+02 eV/A

  End self-consistency iteration #    18       :  max(cpu_time)    wall_clock(cpu1)
  | Time for this iteration                    :        0.145 s           0.145 s
  | Charge density & force component update    :        0.029 s           0.029 s
  | Density mixing                             :        0.002 s           0.003 s
  | Hartree multipole update                   :        0.005 s           0.003 s
  | Hartree multipole summation                :        0.065 s           0.065 s
  | Integration                                :        0.042 s           0.042 s
  | Solution of K.-S. eqns.                    :        0.001 s           0.002 s
  | Total energy evaluation                    :        0.001 s           0.001 s
------------------------------------------------------------

------------------------------------------------------------
          Begin self-consistency iteration #   19

  Date     :  20190722, Time     :  144427.378
------------------------------------------------------------
  Evaluating new KS density and force components.
  Integration grid: deviation in total charge (<rho> - N_e) =   1.421085E-14
  Pulay mixing of updated and previous charge densities.

  Evaluating partitioned Hartree potential by multipole expansion.
  | Analytical far-field extrapolation by fixed multipoles:
  | Hartree multipole sum: apparent total charge =   0.999999E+00
  Summing up the Hartree potential.
  Time summed over all CPUs for potential: real work        0.253 s, elapsed        0.256 s
  | RMS charge density error from multipole expansion :   0.495332E-03

  Integrating Hamiltonian matrix: batch-based integration.
  Time summed over all CPUs for integration: real work        0.166 s, elapsed        0.169 s

  Updating Kohn-Sham eigenvalues, eigenvectors, occupation numbers, and Fermi level.
  Solving generalized eigenproblem
  Updating Kohn-Sham eigenvalues and eigenfunctions.
  Solving real generalised eigenvalue problem by standard LAPACK (fast)
  Determining occupation numbers for Kohn-Sham eigenstates.
  | Chemical potential (Fermi level) in eV                 : -.17441308E+02
  | Error in electron count due to remaining E_F inaccuracy: 0.35527137E-14
  | Maximum occupation number of highest empty state:  0.00E+00

  Highest occupied state (VBM) at    -25.61029572 eV
  | Occupation number:      2.00000000

  Lowest unoccupied state (CBM) at   -17.43653820 eV
  | Occupation number:      0.50000019

  Overall HOMO-LUMO gap:      8.17375752 eV.

  Total energy components:
  | Sum of eigenvalues            :         -89.79637964 Ha       -2443.48381318 eV
  | XC energy correction          :         -16.45369160 Ha        -447.72772868 eV
  | XC potential correction       :          21.14564211 Ha         575.40219806 eV
  | Free-atom electrostatic energy:         -71.50995483 Ha       -1945.88487651 eV
  | Hartree energy correction     :           6.82130295 Ha         185.61709747 eV
  | Entropy correction            :          -0.00016515 Ha          -0.00449404 eV
  | ---------------------------
  | Total energy                  :        -149.79308101 Ha       -4076.07712284 eV
  | Total energy, T -> 0          :        -149.79324616 Ha       -4076.08161688 eV  <-- do not rely on this value for anything but (periodic) metals
  | Electronic free energy        :        -149.79341132 Ha       -4076.08611092 eV

  Derived energy quantities:
  | Kinetic energy                :         149.45658008 Ha        4066.92046650 eV
  | Electrostatic energy          :        -282.79596948 Ha       -7695.26986066 eV
  | Energy correction for multipole
  | error in Hartree potential    :          -0.00054343 Ha          -0.01478739 eV
  | Sum of eigenvalues per atom                           :       -1221.74190659 eV
  | Total energy (T->0) per atom                          :       -2038.04080844 eV  <-- do not rely on this value for anything but (periodic) metals
  | Electronic free energy per atom                       :       -2038.04305546 eV

  atomic forces [eV/Ang]:
  -----------------------
  atom #    1
   Hellmann-Feynman              :  0.347306E-01 -0.660666E-11 -0.155921E+02
   Ionic forces                  :  0.000000E+00  0.000000E+00  0.000000E+00
   Multipole                     :  0.133110E-03  0.519399E-13 -0.593844E-01
   Pulay + GGA                   : -0.348634E-01  0.113038E-11  0.156517E+02
   ----------------------------------------------------------------
   Total forces(   1)            :  0.268326E-06 -0.542434E-11  0.243609E-03
  atom #    2
   Hellmann-Feynman              : -0.347306E-01  0.121908E-10  0.155921E+02
   Ionic forces                  :  0.000000E+00  0.000000E+00  0.000000E+00
   Multipole                     : -0.133110E-03 -0.107520E-12  0.593844E-01
   Pulay + GGA                   :  0.348634E-01  0.106330E-11 -0.156517E+02
   ----------------------------------------------------------------
   Total forces(   2)            : -0.268315E-06  0.131465E-10 -0.243609E-03


  Self-consistency convergence accuracy:
  | Change of charge density      :  0.4602E-07
  | Change of sum of eigenvalues  : -0.4515E-07 eV
  | Change of total energy        : -0.5414E-11 eV
  | Change of forces              :  0.7817E-06 eV/A

  Writing Kohn-Sham eigenvalues.

  State    Occupation    Eigenvalue [Ha]    Eigenvalue [eV]
      1       2.00000         -19.412611         -528.24402
      2       2.00000         -19.412392         -528.23807
      3       2.00000          -1.743891          -47.45369
      4       2.00000          -1.151970          -31.34670
      5       2.00000          -0.957887          -26.06543
      6       2.00000          -0.957887          -26.06543
      7       2.00000          -0.941161          -25.61030
      8       0.50000          -0.640781          -17.43654
      9       0.50000          -0.640781          -17.43654
     10       0.00000          -0.181164           -4.92973
     11       0.00000          -0.160859           -4.37719
     12       0.00000          -0.115282           -3.13697
     13       0.00000          -0.115282           -3.13697
     14       0.00000          -0.061531           -1.67435

  Highest occupied state (VBM) at    -25.61029572 eV
  | Occupation number:      2.00000000

  Lowest unoccupied state (CBM) at   -17.43653820 eV
  | Occupation number:      0.50000019

  Overall HOMO-LUMO gap:      8.17375752 eV.

  Self-consistency cycle converged.

  End self-consistency iteration #    19       :  max(cpu_time)    wall_clock(cpu1)
  | Time for this iteration                    :        0.217 s           0.218 s
  | Charge density & force component update    :        0.100 s           0.100 s
  | Density mixing                             :        0.003 s           0.003 s
  | Hartree multipole update                   :        0.004 s           0.004 s
  | Hartree multipole summation                :        0.065 s           0.064 s
  | Integration                                :        0.043 s           0.043 s
  | Solution of K.-S. eqns.                    :        0.001 s           0.001 s
  | Total energy evaluation                    :        0.001 s           0.002 s
------------------------------------------------------------
  Writing cluster restart information to file restart
  ------------------------------------------------------------
   Computing monopole / dipole moments for complete molecule:
  | Total electronic charge [e]         :          0.150000000003872E+02
  | Total ionic charge [e]              :          0.160000000000000E+02
  | Total charge [e]                    :          0.999999999612781E+00
 * Warning: The system has a total charge of      1.00000000 .
 * The dipole moment depends on the choice of the origin.
  | Total dipole moment [eAng]          :         -0.124999999952012E-02         0.279799124161539E-14         0.603749999766237E+00
  | Absolute dipole moment              :          0.603751293760709E+00 eAng              /                   0.289948910067398E+01 Debye  .
  Removing unitary transformations (pure translations, rotations) from forces on atoms.
  Atomic forces before filtering:
  | Net force on center of mass :   0.109965E-10  0.772220E-11 -0.134169E-10 eV/A
  | Net torque on center of mass:  -0.104255E-10 -0.910287E-06 -0.232136E-13 eV
  Atomic forces after filtering:
  | Net force on center of mass :   0.000000E+00  0.129808E-26  0.000000E+00 eV/A
  | Net torque on center of mass:  -0.364364E-26 -0.900349E-22 -0.811297E-29 eV

  Energy and forces in a compact form:
  | Total energy uncorrected      :         -0.407607712284122E+04 eV
  | Total energy corrected        :         -0.407608161688050E+04 eV  <-- do not rely on this value for anything but (periodic) metals
  | Electronic free energy        :         -0.407608611091979E+04 eV
  Total atomic forces (unitary forces cleaned) [eV/Ang]:
  |   1         -0.542418326374133E-06         -0.259615079450449E-26          0.243606926542269E-03
  |   2          0.542418326374133E-06          0.389422619175673E-26         -0.243606926542269E-03

  ------------------------------------ 
  Start decomposition of the XC Energy 
  ------------------------------------ 
  Hartree-Fock part   :          0.000000000 Ha              0.000000000 eV
  ------------------------------------ 
  X Energy            :        -15.950250840 Ha           -434.028408473 eV
  C Energy GGA        :         -0.503440764 Ha            -13.699320211 eV
  Total XC Energy     :        -16.453691604 Ha           -447.727728684 eV
  LDA X and C from self-consistent density 
  X Energy LDA        :        -14.465847491 Ha           -393.635738196 eV
  C Energy LDA        :         -1.061660390 Ha            -28.889249071 eV
  ------------------------------------ 
  End decomposition of the XC Energy 
  ------------------------------------ 

------------------------------------------------------------------------------
  Final output of selected total energy values:

  The following output summarizes some interesting total energy values
  at the end of a run (AFTER all relaxation, molecular dynamics, etc.).

  | Total energy of the DFT / Hartree-Fock s.c.f. calculation      :          -4076.077122841 eV
  | Final zero-broadening corrected energy (caution - metals only) :          -4076.081616881 eV
  | For reference only, the value of 1 Hartree used in FHI-aims is :             27.211384500 eV

  Before relying on these values, please be sure to understand exactly which
  total energy value is referred to by a given number. Different objects may
  all carry the same name 'total energy'. Definitions:

  Total energy of the DFT / Hartree-Fock s.c.f. calculation:
  | Note that this energy does not include ANY quantities calculated after the
  | s.c.f. cycle, in particular not ANY RPA, MP2, etc. many-body perturbation terms.

  Final zero-broadening corrected energy:
  | For metallic systems only, a broadening of the occupation numbers at the Fermi
  | level can be extrapolated back to zero broadening by an electron-gas inspired
  | formula. For all systems that are not real metals, this value can be
  | meaningless and should be avoided.

------------------------------------------------------------------------------
  Methods described in the following list of references were used in this FHI-aims run.
  If you publish the results, please make sure to cite these reference if they apply.
  FHI-aims is an academic code, and for our developers (often, Ph.D. students
  and postdocs), scientific credit in the community is essential.
  Thank you for helping us!

  For any use of FHI-aims, please cite:

    Volker Blum, Ralf Gehrke, Felix Hanke, Paula Havu, Ville Havu,
    Xinguo Ren, Karsten Reuter, and Matthias Scheffler
    'Ab initio molecular simulations with numeric atom-centered orbitals'
    Computer Physics Communications 180, 2175-2196 (2009)
    http://dx.doi.org/10.1016/j.cpc.2009.06.022


  For the real-space grid partitioning and parallelization used in this calculation, please cite:

    Ville Havu, Volker Blum, Paula Havu, and Matthias Scheffler,
    'Efficient O(N) integration for all-electron electronic structure calculation'
    'using numerically tabulated basis functions'
    Journal of Computational Physics 228, 8367-8379 (2009).
    http://dx.doi.org/10.1016/j.jcp.2009.08.008

  Of course, there are many other important community references, e.g., those cited in the
  above references. Our list is limited to references that describe implementations in the
  FHI-aims code. The reason is purely practical (length of this list) - please credit others as well.

------------------------------------------------------------
          Leaving FHI-aims.
          Date     :  20190722, Time     :  144427.641

          Computational steps:
          | Number of self-consistency cycles          :           19

          Detailed time accounting                     :  max(cpu_time)    wall_clock(cpu1)
          | Total time                                 :        2.639 s           2.658 s
          | Preparation time                           :        0.147 s           0.160 s
          | Grid partitioning                          :        0.023 s           0.022 s
          | Preloading free-atom quantities on grid    :        0.017 s           0.017 s
          | Free-atom superposition energy             :        0.009 s           0.009 s
          | Total time for integrations                :        0.914 s           0.909 s
          | Total time for solution of K.-S. equations :        0.034 s           0.038 s
          | Total time for density & force components  :        0.673 s           0.665 s
          | Total time for mixing                      :        0.054 s           0.054 s
          | Total time for Hartree multipole update    :        0.087 s           0.076 s
          | Total time for Hartree multipole sum       :        0.586 s           0.576 s
          | Total time for total energy evaluation     :        0.010 s           0.024 s

          Have a nice day.
------------------------------------------------------------
