  MPI-parallelism will be employed.
------------------------------------------------------------
          Invoking FHI-aims ...
          Version 160328_3
          Compiled on 2019/06/10 at 14:55:49 on host taito-login3.csc.fi.

          When using FHI-aims, please cite the following reference:

          Volker Blum, Ralf Gehrke, Felix Hanke, Paula Havu,
          Ville Havu, Xinguo Ren, Karsten Reuter, and Matthias Scheffler,
          'Ab Initio Molecular Simulations with Numeric Atom-Centered Orbitals',
          Computer Physics Communications 180, 2175-2196 (2009)

          For any questions about FHI-aims, please visit the aimsclub website
          with its forums and wiki. Contributions to both the forums and the
          wiki are warmly encouraged - they are for you, and everyone is welcome there.

------------------------------------------------------------

  Date     :  20190722, Time     :  144419.540
  Time zero on CPU 1             :   0.699890000000000E-01  s.
  Internal wall clock time zero  :           333038659.540  s.

  Using        4 parallel tasks.
  Task        0 on host c798 reporting.
  Task        1 on host c798 reporting.
  Task        2 on host c798 reporting.
  Task        3 on host c798 reporting.

  Performing system and environment tests:
  | Environment variable OMP_NUM_THREADS correctly set to 1.
  | Maximum stacksize for task 0: unlimited
  | Maximum stacksize for task 1: unlimited
  | Maximum stacksize for task 2: unlimited
  | Maximum stacksize for task 3: unlimited
  | Current stacksize for task 0: 1024 [Mb]
  | Current stacksize for task 1: 1024 [Mb]
  | Current stacksize for task 2: 1024 [Mb]
  | Current stacksize for task 3: 1024 [Mb]
  | Checking for scalapack...
  | No scalapack compiled in.

  Obtaining array dimensions for all initial allocations:
  
  -----------------------------------------------------------------------
  Parsing control.in (first pass over file, find array dimensions only).
  The contents of control.in will be repeated verbatim below
  unless switched off by setting 'verbatim_writeout .false.' .
  in the first line of control.in .
  -----------------------------------------------------------------------
  
    #  Physical model settings
    #
  
    xc                            pbe
    charge                        1.0
    relativistic                  none
  #  default_initial_moment        0.0
    spin                          none
  #  vdw_correction_hirshfeld
  
    #  SCF convergence settings
    #
  
    sc_accuracy_rho               1E-4
    sc_accuracy_eev               1E-2
    sc_accuracy_etot              1E-8
    sc_iter_limit                 100
  
    #  Occupation settings
    #
  
    restart                       restart
    force_occupation_projector      9 1 0.5 8 9 # ion 0
    force_occupation_projector      8 1 0.5 8 9 # ion 0
  
    #  Relaxation
    #
  
    ######relax_geometry                bfgs    1.e-4
  
  
  ################################################################################
  #
  #  FHI-aims code project
  #  VB, Fritz-Haber Institut, 2007
  #
  #  Suggested "safe" defaults for O atom (to be pasted into control.in file)
  #
  ################################################################################
    species        O
  #     global species definitions
      nucleus             8
      mass                15.9994
  #
      l_hartree           8
  #
      cut_pot             4.0  2.0  1.0
      basis_dep_cutoff    0.d0
  #
      radial_base         36 7.0
      radial_multiplier   2
       angular_grids specified
        division   0.4087  110
        division   0.5181  194
        division   0.6184  302
        division   0.7315  434
        division   0.7934  590
  #      division   0.9656  770
  #      division   1.4041  974
  #      outer_grid 974
        outer_grid 590
  ################################################################################
  #
  #  Definition of "minimal" basis
  #
  ################################################################################
  #     valence basis states
      valence      2  s   2.
      valence      2  p   4.
  #     ion occupancy
      ion_occ      2  s   1.
      ion_occ      2  p   3.
  ################################################################################
  #
  #  Suggested additional basis functions. For production calculations,
  #  uncomment them one after another (the most important basis functions are
  #  listed first).
  #
  #  Constructed for dimers: 1.0 A, 1.208 A, 1.5 A, 2.0 A, 3.0 A
  #
  ################################################################################
  #  "First tier" - improvements: -699.05 meV to -159.38 meV
       hydro 2 p 1.8
       hydro 3 d 7.6
       hydro 3 s 6.4
  #  "Second tier" - improvements: -49.91 meV to -5.39 meV
       hydro 4 f 11.6
       hydro 3 p 6.2
       hydro 3 d 5.6
       hydro 5 g 17.6
       hydro 1 s 0.75
  #  "Third tier" - improvements: -2.83 meV to -0.50 meV
  #     ionic 2 p auto
  #     hydro 4 f 10.8
  #     hydro 4 d 4.7
  #     hydro 2 s 6.8
  #  "Fourth tier" - improvements: -0.40 meV to -0.12 meV
  #     hydro 3 p 5
  #     hydro 3 s 3.3
  #     hydro 5 g 15.6
  #     hydro 4 f 17.6
  #     hydro 4 d 14
  # Further basis functions - -0.08 meV and below
  #     hydro 3 s 2.1
  #     hydro 4 d 11.6
  #     hydro 3 p 16
  #     hydro 2 s 17.2
  compute_forces .true.
  final_forces_cleaned .true.
  output dipole
  
  -----------------------------------------------------------------------
  Completed first pass over input file control.in .
  -----------------------------------------------------------------------
  
  
  -----------------------------------------------------------------------
  Parsing geometry.in (first pass over file, find array dimensions only).
  The contents of geometry.in will be repeated verbatim below
  unless switched off by setting 'verbatim_writeout .false.' .
  in the first line of geometry.in .
  -----------------------------------------------------------------------
  
  #
  # temporary structure-file for finite-difference calculation of forces
  # displacement   0.0025 of \# atom     0 direction     2
  #
  atom   -0.00000000    0.00000000    0.04485893   O
  atom   -0.00000000    0.00000000    1.16514107   O
  
  -----------------------------------------------------------------------
  Completed first pass over input file geometry.in .
  -----------------------------------------------------------------------
  

  Basic array size parameters:
  | Number of species                 :        1
  | Number of atoms                   :        2
  | Max. basis fn. angular momentum   :        4
  | Max. atomic/ionic basis occupied n:        2
  | Max. number of basis fn. types    :        2
  | Max. radial fns per species/type  :        8
  | Max. logarithmic grid size        :     1301
  | Max. radial integration grid size :       73
  | Max. angular integration grid size:      590
  | Max. angular grid division number :        8
  | Radial grid for Hartree potential :     1301
  | Number of spin channels           :        1

------------------------------------------------------------
          Reading file control.in.
------------------------------------------------------------
  XC: Using PBE gradient-corrected functionals.
  Charged system requested: Charge =   0.100000E+01.
  Non-relativistic treatment of kinetic energy.
  Spin treatment: No spin polarisation.
  Convergence accuracy of self-consistent charge density:  0.1000E-03
  Convergence accuracy of sum of eigenvalues:  0.1000E-01
  Convergence accuracy of total energy:  0.1000E-07
  Maximum number of s.-c. iterations  :   100
  Restart file specified as : restart
  | Reading information from existing file.
  Occupation forced using projector   1        9   0.50000000
  Occupation forced using projector   1        8   0.50000000
 
  Reading configuration options for species O                   .
  | Found nuclear charge :   8.0000
  | Found atomic mass :    15.9994000000000      amu
  | Found l_max for Hartree potential  :   8
  | Found cutoff potl. onset [A], width [A], scale factor :    4.00000    2.00000    1.00000
  | Threshold for basis-dependent cutoff potential is   0.000000E+00
  | Found data for basic radial integration grid :    36 points, outermost radius =    7.000 A
  | Found multiplier for basic radial grid :   2
  | Found angular grid specification: user-specified.
  | Specified grid contains     6 separate shells.
  | Check grid settings after all constraints further below.
  | Found free-atom valence shell :  2 s   2.000
  | Found free-atom valence shell :  2 p   4.000
  | No ionic wave fns used. Skipping ion_occ.
  | No ionic wave fns used. Skipping ion_occ.
  | Found hydrogenic basis function :  2 p   1.800
  | Found hydrogenic basis function :  3 d   7.600
  | Found hydrogenic basis function :  3 s   6.400
  | Found hydrogenic basis function :  4 f  11.600
  | Found hydrogenic basis function :  3 p   6.200
  | Found hydrogenic basis function :  3 d   5.600
  | Found hydrogenic basis function :  5 g  17.600
  | Found hydrogenic basis function :  1 s   0.750
  Species O                   : Missing cutoff potential type.
  Defaulting to exp(1/x)/(1-x)^2 type cutoff potential.
  Species O : No 'logarithmic' tag. Using default grid for free atom:
  | Default logarithmic grid data [bohr] : 0.1000E-03 0.1000E+03 0.1012E+01
  Species O : On-site basis accuracy parameter (for Gram-Schmidt orthonormalisation) not specified.
  Using default value basis_acc =  0.1000000E-03.
  Species O                   : Using default innermost maximum threshold i_radial=  2 for radial functions.
  Species O                   : Default cutoff onset for free atom density etc. : 0.40000000E+01 AA.
  Species O                   : Basic radial grid will be enhanced according to radial_multiplier =   2, to contain    73 grid points.
  Forces will be computed.
  Cleaning forces before final output.
  Dipole moment will be written out.
 
  Finished reading input file 'control.in'. Consistency checks are next.
 
  Target number of points in a grid batch is not set. Defaulting to  100
  Method for grid partitioning is not set. Defaulting to parallel hash+maxmin partitioning.
  Batch size limit is not set. Defaulting to    200
  By default, will store active basis functions for each batch.
  If in need of memory, prune_basis_once .false. can be used to disable this option.
  communication_type for Hartree potential was not specified.
  Defaulting to calc_hartree .
  Defaulting to Pulay charge density mixer.
  Pulay mixer: Number of relevant iterations not set.
  Defaulting to    8 iterations.
  Pulay mixer: Number of initial linear mixing iterations not set.
  Defaulting to    0 iterations.
  Work space size for distributed Hartree potential not set.
  Defaulting to   0.200000E+03 MB.
  Mixing parameter for charge density mixing has not been set.
  Using default: charge_mix_param =     0.2000.
  Algorithm-dependent basis array size parameters:
  | n_max_pulay                         :        8
  Geometry relaxation not requested: no relaxation will be performed.
  Force calculation: scf convergence accuracy of forces not set.
  Defaulting to  0.1000E-03 eV/A.
  Handling of forces: Unphysical translation and rotation will be removed from forces.
  No accuracy limit for integral partition fn. given. Defaulting to  0.1000E-14.
  No threshold value for u(r) in integrations given. Defaulting to  0.1000E-05.
  No occupation type (smearing scheme) given. Defaulting to Gaussian broadening, width =  0.1000E-01 eV.
  No accuracy for occupation numbers given. Defaulting to  0.1000E-07.
  No threshold value for occupation numbers given. Defaulting to  0.0000E+00.
  No accuracy for fermi level given. Defaulting to  0.1000E-19.
  Maximum # of iterations to find E_F not set. Defaulting to  200.
  Preferred method for the eigenvalue solver ('KS_method') not specified in 'control.in'.
  Calling blacs routine to test compilation state
  The best choice would be 'elpa', but your version of FHI-aims is compiled without scalapack support.
  Defaulting to 'lapack_fast' instead (serial solution, time will not improve with more CPUs).
  Will not use alltoall communication since running on < 1024 CPUs.
  Threshold for basis singularities not set.
  Default threshold for basis singularities:  0.1000E-04
  partition_type (choice of integration weights) for integrals was not specified.
  | Using a version of the partition function of Stratmann and coworkers ('stratmann_smoother').
  | At each grid point, the set of atoms used to build the partition table is smoothly restricted to
  | only those atoms whose free-atom density would be non-zero at that grid point.
  Partitioning for Hartree potential was not defined. Using partition_type for integrals.
  | Adjusted default value of keyword multip_moments_threshold to:       0.10000000E-11
  | This value may affect high angular momentum components of the Hartree potential in periodic systems.
  No q(lm)/r^(l+1) cutoff set for long-range Hartree potential.
  | Using default value of  0.100000E-09 .
  | Verify using the multipole_threshold keyword.
  Defaulting to new monopole extrapolation.
  Density update method: automatic selection selected.
------------------------------------------------------------


------------------------------------------------------------
          Reading geometry description geometry.in.
------------------------------------------------------------
 * Warning: Initial charge and total charge of the system are inconsistent.
 * Selected charge in control.in:     1.0000* Sum of initial charges in geometry.in:     0.0000
  Input structure read successfully.
  The structure contains        2 atoms,  and a total of         15.000 electrons.

  Input geometry:
  | No unit cell requested.
  | Atomic structure:
  |       Atom                x [A]            y [A]            z [A]
  |    1: Species O              0.000000         0.000000         0.044859
  |    2: Species O              0.000000         0.000000         1.165141
  |

  | The smallest distance between any two atoms is         1.12028214 AA.
  |
  | The first atom of this pair is atom number                      1 .
  | The second atom of this pair is atom number                     2 .

  Number of empty states per atom not set in control.in - providing a guess from actual geometry.
  | Total number of empty states used during s.c.f. cycle:        6
  If you use a very high smearing, use empty_states (per atom!) in control.in to increase this value.

  Structure-dependent array size parameters: 
  | Maximum number of distinct radial functions  :       11
  | Maximum number of basis functions            :       78
  | Number of Kohn-Sham states (occupied + empty):       14
------------------------------------------------------------

------------------------------------------------------------
          Preparing all fixed parts of the calculation.
------------------------------------------------------------
  Determining machine precision:
    2.225073858507201E-308
  Setting up grids for atomic and cluster calculations.

  Creating wave function, potential, and density for free atoms.

  Species: O

  List of occupied orbitals and eigenvalues:
    n    l              occ      energy [Ha]    energy [eV]
    1    0           2.0000       -18.898576      -514.2564
    2    0           2.0000        -0.878795       -23.9132
    2    1           4.0000        -0.332075        -9.0362

  Creating fixed part of basis set: Ionic, confined, hydrogenic.
 
  O                    hydrogenic:
 
  List of hydrogenic basis orbitals: 
    n    l      effective z      eigenvalue [eV]  inner max. [A]     outer max. [A]     outer radius [A]   
    2    1         1.800000       -11.0118           1.178562           1.178562           5.432602
    3    2         7.600000       -87.3183           0.624125           0.624125           4.634338
    3    0         6.400000       -61.9210           0.061167           1.081902           5.110480
    4    3        11.600000      -114.4239           0.731631           0.731631           4.522403
    3    1         6.200000       -58.1114           0.255680           1.030270           5.110480
    3    2         5.600000       -47.4083           0.847233           0.847233           5.173339
    5    4        17.600000      -168.5800           0.749740           0.749740           4.051222
    1    0         0.750000        -7.6499           0.705284           0.705284           5.366593
 

  Adding cutoff potential to free-atom effective potential.
  Creating atomic-like basis functions for current effective potential.

  Species O                   :

  List of atomic basis orbitals and eigenvalues:
    n    l      energy [Ha]    energy [eV]    outer radius [A]
    1    0       -18.898576      -514.2564       1.415765
    2    0        -0.878795       -23.9132       5.048385
    2    1        -0.332075        -9.0362       5.301386

  Assembling full basis from fixed parts.
  | Species O :   atomic orbital   1 s accepted.
  | Species O :   atomic orbital   2 s accepted.
  | Species O :    hydro orbital   3 s accepted.
  | Species O :    hydro orbital   1 s accepted.
  | Species O :   atomic orbital   2 p accepted.
  | Species O :    hydro orbital   2 p accepted.
  | Species O :    hydro orbital   3 p accepted.
  | Species O :    hydro orbital   3 d accepted.
  | Species O :    hydro orbital   3 d accepted.
  | Species O :    hydro orbital   4 f accepted.
  | Species O :    hydro orbital   5 g accepted.
 
  Basis size parameters after reduction:
  | Total number of radial functions:       11
  | Total number of basis functions :       78
 
  Testing on-site integration grid accuracy.
  |  Species  Function  <phi|h_atom|phi> (log., in eV)  <phi|h_atom|phi> (rad., in eV)
           1        1               -514.2564144315               -514.2564099626
           1        2                -23.9132357102                -23.9132356433
           1        3                 17.5398579759                 17.5398338425
           1        4                 14.5207278950                 14.5207740449
           1        5                 -9.0362392718                 -9.0362394845
           1        6                  7.9056275927                  7.9056237490
           1        7                 33.4201658992                 33.4201612015
           1        8                 45.8231952720                 45.8231953152
           1        9                 52.1937595491                 52.1937593440
           1       10                 85.4062894308                 85.4062894578
           1       11                142.0975701139                142.0975701391

  Preparing densities etc. for the partition functions (integrals / Hartree potential).

  Preparations completed.
  max(cpu_time)          :      0.144 s.
  Wall clock time (cpu1) :      0.160 s.
------------------------------------------------------------

------------------------------------------------------------
          Begin self-consistency loop: Initialization.

          Date     :  20190722, Time     :  144419.717
------------------------------------------------------------

  Initializing index lists of integration centers etc. from given atomic structure:
  | Number of centers in hartree potential         :         2
  | Number of centers in hartree multipole         :         2
  | Number of centers in electron density summation:         2
  | Number of centers in basis integrals           :         2
  | Number of centers in integrals                 :         2
  | Number of centers in hamiltonian               :         2
  Partitioning the integration grid into batches with parallel hashing+maxmin method.
  | Number of batches:      736
  | Maximal batch size:     118
  | Minimal batch size:      49
  | Average batch size:      72.364
  | Standard deviation of batch sizes:      21.784

  Integration load balanced across     4 MPI tasks.
  Work distribution over tasks is as follows:
  Task     0 has      13344 integration points.
  Task     1 has      13316 integration points.
  Task     2 has      13285 integration points.
  Task     3 has      13315 integration points.
  Initializing partition tables, free-atom densities, potentials, etc. across the integration grid (initialize_grid_storage).
  | initialize_grid_storage: Actual outermost partition radius vs. multipole_radius_free
  | (-- VB: in principle, multipole_radius_free should be larger, hence this output)
  | Species        1: Confinement radius =              6.000000000000000 AA, multipole_radius_free =              6.064445521808699 AA.
  | Species        1: outer_partition_radius set to              6.064445521808699 AA .
  | Original list of interatomic distances with           2 x          2 entries is created.
  | Net number of integration points:    53260
  | of which are non-zero points    :    49986
  Obtaining max. number of non-zero basis functions in each batch (get_n_compute_maxes).
  | Maximal number of non-zero basis functions:       78 in task     0
  | Maximal number of non-zero basis functions:       78 in task     1
  | Maximal number of non-zero basis functions:       78 in task     2
  | Maximal number of non-zero basis functions:       78 in task     3
  Selecting the method for density update.
  Loop over occupied states selected for charge density update.
  Integrating Hamiltonian matrix: batch-based integration.
  Time summed over all CPUs for integration: real work        0.169 s, elapsed        0.171 s
  Integrating overlap matrix.
  Time summed over all CPUs for integration: real work        0.061 s, elapsed        0.062 s

  Reading cluster restart information from file restart
  Writing Kohn-Sham eigenvalues.

  State    Occupation    Eigenvalue [Ha]    Eigenvalue [eV]
      1       2.00000         -18.889630         -514.01299
      2       2.00000         -18.889404         -514.00683
      3       2.00000          -1.269639          -34.54865
      4       2.00000          -0.700708          -19.06723
      5       2.00000          -0.503622          -13.70424
      6       2.00000          -0.503622          -13.70424
      7       2.00000          -0.495082          -13.47188
      8       1.00000          -0.185915           -5.05902
      9       1.00000          -0.185915           -5.05902
     10       0.00000           0.098728            2.68652
     11       0.00000           0.105717            2.87671
     12       0.00000           0.132979            3.61854
     13       0.00000           0.000000            0.00000
     14       0.00000           0.000000            0.00000

  Highest occupied state (VBM) at     -5.05901677 eV
  | Occupation number:      1.00000046

  Lowest unoccupied state (CBM) at    -5.05901676 eV
  | Occupation number:      0.99999954

  Overall HOMO-LUMO gap:      0.00000001 eV.
*** get_ev_sum_p0 expected pure occ_numbers
*** sum(occ_numbers) =  1.6000000000000085E+01 instead of  1.5000000000000000E+01
  Calculating total energy contributions from superposition of free atom densities.
*** get_entropy_correction expected pure occ_numbers
*** sum(occ_numbers) =  1.6000000000000085E+01 instead of  1.5000000000000000E+01
*** get_penalty_energy expected pure occ_numbers
*** sum(occ_numbers) =  1.6000000000000085E+01 instead of  1.5000000000000000E+01

  Total energy components:
  | Sum of eigenvalues            :         -82.87524408 Ha       -2255.15013224 eV
  | XC energy correction          :         -16.82262263 Ha        -457.76685280 eV
  | XC potential correction       :          21.62973536 Ha         588.57504544 eV
  | Free-atom electrostatic energy:         -71.49643139 Ha       -1945.51688498 eV
  | Hartree energy correction     :           0.00000000 Ha           0.00000000 eV
  | Entropy correction            :          -0.00020734 Ha          -0.00564190 eV
  | ---------------------------
  | Total energy                  :        -149.56456275 Ha       -4069.85882458 eV
  | Total energy, T -> 0          :        -149.56477009 Ha       -4069.86446648 eV  <-- do not rely on this value for anything but (periodic) metals
  | Electronic free energy        :        -149.56497742 Ha       -4069.87010838 eV

  Derived energy quantities:
  | Kinetic energy                :         150.57531903 Ha        4097.36290236 eV
  | Electrostatic energy          :        -283.31725915 Ha       -7709.45487414 eV
  | Energy correction for multipole
  | error in Hartree potential    :           0.00000000 Ha           0.00000000 eV
  | Sum of eigenvalues per atom                           :       -1127.57506612 eV
  | Total energy (T->0) per atom                          :       -2034.93223324 eV  <-- do not rely on this value for anything but (periodic) metals
  | Electronic free energy per atom                       :       -2034.93505419 eV
  Initialize hartree_potential_storage
  Max. number of atoms included in rho_multipole:            2

  End scf initialization - timings             :  max(cpu_time)    wall_clock(cpu1)
  | Time for scf. initialization               :        0.125 s           0.124 s
  | Boundary condition initialization          :        0.001 s           0.001 s
  | Integration                                :        0.060 s           0.059 s
  | Solution of K.-S. eqns.                    :        0.002 s           0.002 s
  | Grid partitioning                          :        0.024 s           0.024 s
  | Preloading free-atom quantities on grid    :        0.017 s           0.017 s
  | Free-atom superposition energy             :        0.009 s           0.009 s
  | Total energy evaluation                    :        0.001 s           0.001 s
------------------------------------------------------------

------------------------------------------------------------
          Initial SCF-cycle to compute last known
          density from restart information.

  Date     :  20190722, Time     :  144419.841
------------------------------------------------------------
*** scf_solver:charge expected kweighted occ_numbers
*** sum(occ_numbers) =  1.6000000000000085E+01 instead of  1.5000000000000000E+01
  Evaluating new KS density.
*** update_density_and_forces_p2 expected kweighted occ_numbers
*** sum(occ_numbers) =  1.6000000000000085E+01 instead of  1.5000000000000000E+01
  Integration grid: deviation in total charge (<rho> - N_e) =   1.000000E+00

  Evaluating partitioned Hartree potential by multipole expansion.
  | Analytical far-field extrapolation by fixed multipoles:
  | Hartree multipole sum: apparent total charge =  -0.251638E-06
  Summing up the Hartree potential.
  Time summed over all CPUs for potential: real work        0.099 s, elapsed        0.100 s
  | RMS charge density error from multipole expansion :   0.651463E-03

  Integrating Hamiltonian matrix: batch-based integration.
  Time summed over all CPUs for integration: real work        0.165 s, elapsed        0.168 s

  Updating Kohn-Sham eigenvalues, eigenvectors, occupation numbers, and Fermi level.
  Solving generalized eigenproblem
  Updating Kohn-Sham eigenvalues and eigenfunctions.
  Transforming overlap matrix and checking for singularities.
  Overlap matrix is nonsingular:
  | Lowest eigenvalue:  0.183633E-03
  Solving real generalised eigenvalue problem by standard LAPACK (fast)
 BIG   1.00000000000031     
 FORCED TO: now -- previous           8           9           9           8
  Determining occupation numbers for Kohn-Sham eigenstates.
  | Chemical potential (Fermi level) in eV                 : -.8076E+01
  | Error in electron count due to remaining E_F inaccuracy: 0.0000E+00

  Highest occupied state (VBM) at    -13.47187755 eV
  | Occupation number:      2.00000000

  Lowest unoccupied state (CBM) at    -5.05901861 eV
  | Occupation number:      0.50000000

  Overall HOMO-LUMO gap:      8.41285894 eV.

  Total energy components:
  | Sum of eigenvalues            :         -82.68932974 Ha       -2250.09114570 eV
  | XC energy correction          :         -16.91865720 Ha        -460.38008639 eV
  | XC potential correction       :          21.75459528 Ha         591.97265669 eV
  | Free-atom electrostatic energy:         -71.49643139 Ha       -1945.51688498 eV
  | Hartree energy correction     :          -0.66450412 Ha         -18.08207723 eV
  | Entropy correction            :           0.00000000 Ha           0.00000000 eV
  | ---------------------------
  | Total energy                  :        -150.01432719 Ha       -4082.09753761 eV
  | Total energy, T -> 0          :        -150.01432719 Ha       -4082.09753761 eV  <-- do not rely on this value for anything but (periodic) metals
  | Electronic free energy        :        -150.01432719 Ha       -4082.09753761 eV

  Derived energy quantities:
  | Kinetic energy                :         150.40589013 Ha        4092.75250742 eV
  | Electrostatic energy          :        -283.50156012 Ha       -7714.46995864 eV
  | Energy correction for multipole
  | error in Hartree potential    :          -0.00059888 Ha          -0.01629645 eV
  | Sum of eigenvalues per atom                           :       -1125.04557285 eV
  | Total energy (T->0) per atom                          :       -2041.04876881 eV  <-- do not rely on this value for anything but (periodic) metals
  | Electronic free energy per atom                       :       -2041.04876881 eV

  Self-consistency convergence accuracy:
  | Change of charge density      :  0.1359E+00
  | Change of sum of eigenvalues  :  0.5059E+01 eV
  | Change of total energy        : -0.1224E+02 eV

  End self-consistency iteration #     0       :  max(cpu_time)    wall_clock(cpu1)
  | Time for this iteration                    :        0.116 s           0.117 s
  | Charge density update                      :        0.033 s           0.033 s
  | Density mixing                             :        0.000 s           0.000 s
  | Hartree multipole update                   :        0.005 s           0.004 s
  | Hartree multipole summation                :        0.027 s           0.027 s
  | Integration                                :        0.042 s           0.042 s
  | Solution of K.-S. eqns.                    :        0.009 s           0.009 s
  | Total energy evaluation                    :        0.000 s           0.001 s
------------------------------------------------------------

------------------------------------------------------------
          Begin self-consistency iteration #    1

  Date     :  20190722, Time     :  144419.959
------------------------------------------------------------
  Evaluating new KS density.
  Integration grid: deviation in total charge (<rho> - N_e) =  -5.329071E-15
  Pulay mixing of updated and previous charge densities.

  Evaluating partitioned Hartree potential by multipole expansion.
  | Analytical far-field extrapolation by fixed multipoles:
  | Hartree multipole sum: apparent total charge =   0.200000E+00
  Summing up the Hartree potential.
  Time summed over all CPUs for potential: real work        0.098 s, elapsed        0.099 s
  | RMS charge density error from multipole expansion :   0.572941E-03

  Integrating Hamiltonian matrix: batch-based integration.
  Time summed over all CPUs for integration: real work        0.164 s, elapsed        0.168 s

  Updating Kohn-Sham eigenvalues, eigenvectors, occupation numbers, and Fermi level.
  Solving generalized eigenproblem
  Updating Kohn-Sham eigenvalues and eigenfunctions.
  Solving real generalised eigenvalue problem by standard LAPACK (fast)
 BIG  0.999250257579544     
 FORCED TO: now -- previous           8           9           8           9
  Determining occupation numbers for Kohn-Sham eigenstates.
  | Chemical potential (Fermi level) in eV                 : -.9588E+01
  | Error in electron count due to remaining E_F inaccuracy: 0.0000E+00

  Writing Kohn-Sham eigenvalues.

  State    Occupation    Eigenvalue [Ha]    Eigenvalue [eV]
      1       2.00000         -19.044513         -518.22756
      2       2.00000         -19.044287         -518.22143
      3       2.00000          -1.393878          -37.92934
      4       2.00000          -0.812260          -22.10272
      5       2.00000          -0.617648          -16.80707
      6       2.00000          -0.617648          -16.80707
      7       2.00000          -0.606507          -16.50391
      8       0.50000          -0.299172           -8.14089
      9       0.50000          -0.299172           -8.14089
     10       0.00000           0.042756            1.16345
     11       0.00000           0.050695            1.37949
     12       0.00000           0.078036            2.12348
     13       0.00000           0.078036            2.12348
     14       0.00000           0.157523            4.28642

  Highest occupied state (VBM) at    -16.50390516 eV
  | Occupation number:      2.00000000

  Lowest unoccupied state (CBM) at    -8.14089020 eV
  | Occupation number:      0.50000000

  Overall HOMO-LUMO gap:      8.36301495 eV.

  Total energy components:
  | Sum of eigenvalues            :         -84.57265584 Ha       -2301.33905624 eV
  | XC energy correction          :         -16.76626604 Ha        -456.23331189 eV
  | XC potential correction       :          21.55503642 Ha         586.54238394 eV
  | Free-atom electrostatic energy:         -71.49643139 Ha       -1945.51688498 eV
  | Hartree energy correction     :           1.36238243 Ha          37.07231202 eV
  | Entropy correction            :           0.00000000 Ha           0.00000000 eV
  | ---------------------------
  | Total energy                  :        -149.91793443 Ha       -4079.47455715 eV
  | Total energy, T -> 0          :        -149.91793443 Ha       -4079.47455715 eV  <-- do not rely on this value for anything but (periodic) metals
  | Electronic free energy        :        -149.91793443 Ha       -4079.47455715 eV

  Derived energy quantities:
  | Kinetic energy                :         149.85322228 Ha        4077.71365012 eV
  | Electrostatic energy          :        -283.00489067 Ha       -7700.95489538 eV
  | Energy correction for multipole
  | error in Hartree potential    :          -0.00048338 Ha          -0.01315333 eV
  | Sum of eigenvalues per atom                           :       -1150.66952812 eV
  | Total energy (T->0) per atom                          :       -2039.73727858 eV  <-- do not rely on this value for anything but (periodic) metals
  | Electronic free energy per atom                       :       -2039.73727858 eV

  Self-consistency convergence accuracy:
  | Change of charge density      :  0.2167E+00
  | Change of sum of eigenvalues  : -0.5125E+02 eV
  | Change of total energy        :  0.2623E+01 eV

  End self-consistency iteration #     1       :  max(cpu_time)    wall_clock(cpu1)
  | Time for this iteration                    :        0.106 s           0.106 s
  | Charge density update                      :        0.030 s           0.030 s
  | Density mixing                             :        0.002 s           0.001 s
  | Hartree multipole update                   :        0.004 s           0.004 s
  | Hartree multipole summation                :        0.026 s           0.026 s
  | Integration                                :        0.043 s           0.042 s
  | Solution of K.-S. eqns.                    :        0.001 s           0.001 s
  | Total energy evaluation                    :        0.000 s           0.002 s
------------------------------------------------------------

------------------------------------------------------------
          Begin self-consistency iteration #    2

  Date     :  20190722, Time     :  144420.066
------------------------------------------------------------
  Evaluating new KS density.
  Integration grid: deviation in total charge (<rho> - N_e) =  -1.421085E-14
  Pulay mixing of updated and previous charge densities.

  Evaluating partitioned Hartree potential by multipole expansion.
  | Analytical far-field extrapolation by fixed multipoles:
  | Hartree multipole sum: apparent total charge =   0.551815E+00
  Summing up the Hartree potential.
  Time summed over all CPUs for potential: real work        0.097 s, elapsed        0.098 s
  | RMS charge density error from multipole expansion :   0.501907E-03

  Integrating Hamiltonian matrix: batch-based integration.
  Time summed over all CPUs for integration: real work        0.164 s, elapsed        0.168 s

  Updating Kohn-Sham eigenvalues, eigenvectors, occupation numbers, and Fermi level.
  Solving generalized eigenproblem
  Updating Kohn-Sham eigenvalues and eigenfunctions.
  Solving real generalised eigenvalue problem by standard LAPACK (fast)
 BIG  0.999068537440808     
 FORCED TO: now -- previous           8           9           8           9
  Determining occupation numbers for Kohn-Sham eigenstates.
  | Chemical potential (Fermi level) in eV                 : -.1729E+02
  | Error in electron count due to remaining E_F inaccuracy: 0.0000E+00

  Highest occupied state (VBM) at    -21.32512588 eV
  | Occupation number:      2.00000000

  Lowest unoccupied state (CBM) at   -13.06349340 eV
  | Occupation number:      0.50000000

  Overall HOMO-LUMO gap:      8.26163248 eV.

  Total energy components:
  | Sum of eigenvalues            :         -87.48389875 Ha       -2380.55800651 eV
  | XC energy correction          :         -16.55194469 Ha        -450.40133116 eV
  | XC potential correction       :          21.27435052 Ha         578.90453194 eV
  | Free-atom electrostatic energy:         -71.49643139 Ha       -1945.51688498 eV
  | Hartree energy correction     :           4.43309126 Ha         120.63055072 eV
  | Entropy correction            :           0.00000000 Ha           0.00000000 eV
  | ---------------------------
  | Total energy                  :        -149.82483306 Ha       -4076.94113999 eV
  | Total energy, T -> 0          :        -149.82483306 Ha       -4076.94113999 eV  <-- do not rely on this value for anything but (periodic) metals
  | Electronic free energy        :        -149.82483306 Ha       -4076.94113999 eV

  Derived energy quantities:
  | Kinetic energy                :         149.15862691 Ha        4058.81274841 eV
  | Electrostatic energy          :        -282.43151528 Ha       -7685.35255724 eV
  | Energy correction for multipole
  | error in Hartree potential    :          -0.00037775 Ha          -0.01027916 eV
  | Sum of eigenvalues per atom                           :       -1190.27900325 eV
  | Total energy (T->0) per atom                          :       -2038.47056999 eV  <-- do not rely on this value for anything but (periodic) metals
  | Electronic free energy per atom                       :       -2038.47056999 eV

  Self-consistency convergence accuracy:
  | Change of charge density      :  0.1326E+00
  | Change of sum of eigenvalues  : -0.7922E+02 eV
  | Change of total energy        :  0.2533E+01 eV

  End self-consistency iteration #     2       :  max(cpu_time)    wall_clock(cpu1)
  | Time for this iteration                    :        0.106 s           0.106 s
  | Charge density update                      :        0.030 s           0.030 s
  | Density mixing                             :        0.002 s           0.002 s
  | Hartree multipole update                   :        0.004 s           0.003 s
  | Hartree multipole summation                :        0.026 s           0.026 s
  | Integration                                :        0.042 s           0.042 s
  | Solution of K.-S. eqns.                    :        0.001 s           0.002 s
  | Total energy evaluation                    :        0.000 s           0.001 s
------------------------------------------------------------

------------------------------------------------------------
          Begin self-consistency iteration #    3

  Date     :  20190722, Time     :  144420.173
------------------------------------------------------------
  Evaluating new KS density.
  Integration grid: deviation in total charge (<rho> - N_e) =   1.421085E-14
  Pulay mixing of updated and previous charge densities.

  Evaluating partitioned Hartree potential by multipole expansion.
  | Analytical far-field extrapolation by fixed multipoles:
  | Hartree multipole sum: apparent total charge =   0.102702E+01
  Summing up the Hartree potential.
  Time summed over all CPUs for potential: real work        0.097 s, elapsed        0.098 s
  | RMS charge density error from multipole expansion :   0.487863E-03

  Integrating Hamiltonian matrix: batch-based integration.
  Time summed over all CPUs for integration: real work        0.165 s, elapsed        0.168 s

  Updating Kohn-Sham eigenvalues, eigenvectors, occupation numbers, and Fermi level.
  Solving generalized eigenproblem
  Updating Kohn-Sham eigenvalues and eigenfunctions.
  Solving real generalised eigenvalue problem by standard LAPACK (fast)
 BIG  0.999781043979744     
 FORCED TO: now -- previous           9           8           8           9
  Determining occupation numbers for Kohn-Sham eigenstates.
  | Chemical potential (Fermi level) in eV                 : -.2537E+02
  | Error in electron count due to remaining E_F inaccuracy: 0.0000E+00

  Highest occupied state (VBM) at    -26.24117510 eV
  | Occupation number:      2.00000000

  Lowest unoccupied state (CBM) at   -18.05200742 eV
  | Occupation number:      0.50000000

  Overall HOMO-LUMO gap:      8.18916769 eV.

  Total energy components:
  | Sum of eigenvalues            :         -90.19745141 Ha       -2454.39753129 eV
  | XC energy correction          :         -16.41978729 Ha        -446.80514545 eV
  | XC potential correction       :          21.10117904 Ha         574.19229630 eV
  | Free-atom electrostatic energy:         -71.49643139 Ha       -1945.51688498 eV
  | Hartree energy correction     :           7.21871537 Ha         196.43123940 eV
  | Entropy correction            :           0.00000000 Ha           0.00000000 eV
  | ---------------------------
  | Total energy                  :        -149.79377569 Ha       -4076.09602602 eV
  | Total energy, T -> 0          :        -149.79377569 Ha       -4076.09602602 eV  <-- do not rely on this value for anything but (periodic) metals
  | Electronic free energy        :        -149.79377569 Ha       -4076.09602602 eV

  Derived energy quantities:
  | Kinetic energy                :         149.28530415 Ha        4062.25981131 eV
  | Electrostatic energy          :        -282.65929254 Ha       -7691.55069188 eV
  | Energy correction for multipole
  | error in Hartree potential    :          -0.00053518 Ha          -0.01456290 eV
  | Sum of eigenvalues per atom                           :       -1227.19876565 eV
  | Total energy (T->0) per atom                          :       -2038.04801301 eV  <-- do not rely on this value for anything but (periodic) metals
  | Electronic free energy per atom                       :       -2038.04801301 eV

  Self-consistency convergence accuracy:
  | Change of charge density      :  0.5894E-01
  | Change of sum of eigenvalues  : -0.7384E+02 eV
  | Change of total energy        :  0.8451E+00 eV

  End self-consistency iteration #     3       :  max(cpu_time)    wall_clock(cpu1)
  | Time for this iteration                    :        0.105 s           0.105 s
  | Charge density update                      :        0.030 s           0.029 s
  | Density mixing                             :        0.001 s           0.002 s
  | Hartree multipole update                   :        0.005 s           0.004 s
  | Hartree multipole summation                :        0.026 s           0.025 s
  | Integration                                :        0.042 s           0.043 s
  | Solution of K.-S. eqns.                    :        0.001 s           0.001 s
  | Total energy evaluation                    :        0.000 s           0.001 s
------------------------------------------------------------

------------------------------------------------------------
          Begin self-consistency iteration #    4

  Date     :  20190722, Time     :  144420.279
------------------------------------------------------------
  Evaluating new KS density.
  Integration grid: deviation in total charge (<rho> - N_e) =   1.065814E-14
  Pulay mixing of updated and previous charge densities.

  Evaluating partitioned Hartree potential by multipole expansion.
  | Analytical far-field extrapolation by fixed multipoles:
  | Hartree multipole sum: apparent total charge =   0.993687E+00
  Summing up the Hartree potential.
  Time summed over all CPUs for potential: real work        0.098 s, elapsed        0.099 s
  | RMS charge density error from multipole expansion :   0.484786E-03

  Integrating Hamiltonian matrix: batch-based integration.
  Time summed over all CPUs for integration: real work        0.164 s, elapsed        0.167 s

  Updating Kohn-Sham eigenvalues, eigenvectors, occupation numbers, and Fermi level.
  Solving generalized eigenproblem
  Updating Kohn-Sham eigenvalues and eigenfunctions.
  Solving real generalised eigenvalue problem by standard LAPACK (fast)
 BIG  0.999988008579034     
 FORCED TO: now -- previous           9           8           9           8
  Determining occupation numbers for Kohn-Sham eigenstates.
  | Chemical potential (Fermi level) in eV                 : -.2497E+02
  | Error in electron count due to remaining E_F inaccuracy: 0.0000E+00

  Highest occupied state (VBM) at    -25.66650761 eV
  | Occupation number:      2.00000000

  Lowest unoccupied state (CBM) at   -17.46131919 eV
  | Occupation number:      0.50000000

  Overall HOMO-LUMO gap:      8.20518842 eV.

  Total energy components:
  | Sum of eigenvalues            :         -89.83710118 Ha       -2444.59190269 eV
  | XC energy correction          :         -16.45014265 Ha        -447.63115663 eV
  | XC potential correction       :          21.14093163 Ha         575.27401932 eV
  | Free-atom electrostatic energy:         -71.49643139 Ha       -1945.51688498 eV
  | Hartree energy correction     :           6.84965005 Ha         186.38846122 eV
  | Entropy correction            :           0.00000000 Ha           0.00000000 eV
  | ---------------------------
  | Total energy                  :        -149.79309354 Ha       -4076.07746376 eV
  | Total energy, T -> 0          :        -149.79309354 Ha       -4076.07746376 eV  <-- do not rely on this value for anything but (periodic) metals
  | Electronic free energy        :        -149.79309354 Ha       -4076.07746376 eV

  Derived energy quantities:
  | Kinetic energy                :         149.44623902 Ha        4066.63907211 eV
  | Electrostatic energy          :        -282.78918992 Ha       -7695.08537923 eV
  | Energy correction for multipole
  | error in Hartree potential    :          -0.00056097 Ha          -0.01526472 eV
  | Sum of eigenvalues per atom                           :       -1222.29595134 eV
  | Total energy (T->0) per atom                          :       -2038.03873188 eV  <-- do not rely on this value for anything but (periodic) metals
  | Electronic free energy per atom                       :       -2038.03873188 eV

  Self-consistency convergence accuracy:
  | Change of charge density      :  0.2414E-01
  | Change of sum of eigenvalues  :  0.9806E+01 eV
  | Change of total energy        :  0.1856E-01 eV

  End self-consistency iteration #     4       :  max(cpu_time)    wall_clock(cpu1)
  | Time for this iteration                    :        0.104 s           0.105 s
  | Charge density update                      :        0.030 s           0.030 s
  | Density mixing                             :        0.002 s           0.002 s
  | Hartree multipole update                   :        0.005 s           0.003 s
  | Hartree multipole summation                :        0.025 s           0.025 s
  | Integration                                :        0.043 s           0.043 s
  | Solution of K.-S. eqns.                    :        0.001 s           0.001 s
  | Total energy evaluation                    :        0.001 s           0.001 s
------------------------------------------------------------

------------------------------------------------------------
          Begin self-consistency iteration #    5

  Date     :  20190722, Time     :  144420.385
------------------------------------------------------------
  Evaluating new KS density.
  Integration grid: deviation in total charge (<rho> - N_e) =   3.552714E-15
  Pulay mixing of updated and previous charge densities.

  Evaluating partitioned Hartree potential by multipole expansion.
  | Analytical far-field extrapolation by fixed multipoles:
  | Hartree multipole sum: apparent total charge =   0.999237E+00
  Summing up the Hartree potential.
  Time summed over all CPUs for potential: real work        0.097 s, elapsed        0.098 s
  | RMS charge density error from multipole expansion :   0.496297E-03

  Integrating Hamiltonian matrix: batch-based integration.
  Time summed over all CPUs for integration: real work        0.165 s, elapsed        0.168 s

  Updating Kohn-Sham eigenvalues, eigenvectors, occupation numbers, and Fermi level.
  Solving generalized eigenproblem
  Updating Kohn-Sham eigenvalues and eigenfunctions.
  Solving real generalised eigenvalue problem by standard LAPACK (fast)
 BIG  0.999999606480772     
 FORCED TO: now -- previous           9           8           9           8
  Determining occupation numbers for Kohn-Sham eigenstates.
  | Chemical potential (Fermi level) in eV                 : -.2494E+02
  | Error in electron count due to remaining E_F inaccuracy: 0.0000E+00

  Highest occupied state (VBM) at    -25.62493097 eV
  | Occupation number:      2.00000000

  Lowest unoccupied state (CBM) at   -17.42022416 eV
  | Occupation number:      0.50000000

  Overall HOMO-LUMO gap:      8.20470681 eV.

  Total energy components:
  | Sum of eigenvalues            :         -89.80900075 Ha       -2443.82725099 eV
  | XC energy correction          :         -16.45584502 Ha        -447.78632602 eV
  | XC potential correction       :          21.14850897 Ha         575.48020916 eV
  | Free-atom electrostatic energy:         -71.49643139 Ha       -1945.51688498 eV
  | Hartree energy correction     :           6.81969941 Ha         185.57346281 eV
  | Entropy correction            :           0.00000000 Ha           0.00000000 eV
  | ---------------------------
  | Total energy                  :        -149.79306878 Ha       -4076.07679003 eV
  | Total energy, T -> 0          :        -149.79306878 Ha       -4076.07679003 eV  <-- do not rely on this value for anything but (periodic) metals
  | Electronic free energy        :        -149.79306878 Ha       -4076.07679003 eV

  Derived energy quantities:
  | Kinetic energy                :         149.46748720 Ha        4067.21726456 eV
  | Electrostatic energy          :        -282.80471097 Ha       -7695.50772857 eV
  | Energy correction for multipole
  | error in Hartree potential    :          -0.00055270 Ha          -0.01503960 eV
  | Sum of eigenvalues per atom                           :       -1221.91362550 eV
  | Total energy (T->0) per atom                          :       -2038.03839501 eV  <-- do not rely on this value for anything but (periodic) metals
  | Electronic free energy per atom                       :       -2038.03839501 eV

  Self-consistency convergence accuracy:
  | Change of charge density      :  0.6841E-02
  | Change of sum of eigenvalues  :  0.7647E+00 eV
  | Change of total energy        :  0.6737E-03 eV

  End self-consistency iteration #     5       :  max(cpu_time)    wall_clock(cpu1)
  | Time for this iteration                    :        0.105 s           0.105 s
  | Charge density update                      :        0.030 s           0.030 s
  | Density mixing                             :        0.003 s           0.002 s
  | Hartree multipole update                   :        0.004 s           0.003 s
  | Hartree multipole summation                :        0.026 s           0.026 s
  | Integration                                :        0.042 s           0.042 s
  | Solution of K.-S. eqns.                    :        0.001 s           0.001 s
  | Total energy evaluation                    :        0.000 s           0.001 s
------------------------------------------------------------

------------------------------------------------------------
          Begin self-consistency iteration #    6

  Date     :  20190722, Time     :  144420.492
------------------------------------------------------------
  Evaluating new KS density.
  Integration grid: deviation in total charge (<rho> - N_e) =  -3.552714E-15
  Pulay mixing of updated and previous charge densities.

  Evaluating partitioned Hartree potential by multipole expansion.
  | Analytical far-field extrapolation by fixed multipoles:
  | Hartree multipole sum: apparent total charge =   0.999570E+00
  Summing up the Hartree potential.
  Time summed over all CPUs for potential: real work        0.097 s, elapsed        0.098 s
  | RMS charge density error from multipole expansion :   0.496893E-03

  Integrating Hamiltonian matrix: batch-based integration.
  Time summed over all CPUs for integration: real work        0.165 s, elapsed        0.168 s

  Updating Kohn-Sham eigenvalues, eigenvectors, occupation numbers, and Fermi level.
  Solving generalized eigenproblem
  Updating Kohn-Sham eigenvalues and eigenfunctions.
  Solving real generalised eigenvalue problem by standard LAPACK (fast)
 BIG  0.999999998585407     
 FORCED TO: now -- previous           9           8           9           8
  Determining occupation numbers for Kohn-Sham eigenstates.
  | Chemical potential (Fermi level) in eV                 : -.2494E+02
  | Error in electron count due to remaining E_F inaccuracy: 0.0000E+00

  Highest occupied state (VBM) at    -25.62810563 eV
  | Occupation number:      2.00000000

  Lowest unoccupied state (CBM) at   -17.42198081 eV
  | Occupation number:      0.50000000

  Overall HOMO-LUMO gap:      8.20612482 eV.

  Total energy components:
  | Sum of eigenvalues            :         -89.81033936 Ha       -2443.86367642 eV
  | XC energy correction          :         -16.45568462 Ha        -447.78196134 eV
  | XC potential correction       :          21.14830952 Ha         575.47478182 eV
  | Free-atom electrostatic energy:         -71.49643139 Ha       -1945.51688498 eV
  | Hartree energy correction     :           6.82107716 Ha         185.61095323 eV
  | Entropy correction            :           0.00000000 Ha           0.00000000 eV
  | ---------------------------
  | Total energy                  :        -149.79306869 Ha       -4076.07678769 eV
  | Total energy, T -> 0          :        -149.79306869 Ha       -4076.07678769 eV  <-- do not rely on this value for anything but (periodic) metals
  | Electronic free energy        :        -149.79306869 Ha       -4076.07678769 eV

  Derived energy quantities:
  | Kinetic energy                :         149.46446480 Ha        4067.13502065 eV
  | Electrostatic energy          :        -282.80184887 Ha       -7695.42984700 eV
  | Energy correction for multipole
  | error in Hartree potential    :          -0.00055115 Ha          -0.01499742 eV
  | Sum of eigenvalues per atom                           :       -1221.93183821 eV
  | Total energy (T->0) per atom                          :       -2038.03839385 eV  <-- do not rely on this value for anything but (periodic) metals
  | Electronic free energy per atom                       :       -2038.03839385 eV

  Self-consistency convergence accuracy:
  | Change of charge density      :  0.6342E-03
  | Change of sum of eigenvalues  : -0.3643E-01 eV
  | Change of total energy        :  0.2339E-05 eV

  End self-consistency iteration #     6       :  max(cpu_time)    wall_clock(cpu1)
  | Time for this iteration                    :        0.106 s           0.105 s
  | Charge density update                      :        0.030 s           0.029 s
  | Density mixing                             :        0.002 s           0.002 s
  | Hartree multipole update                   :        0.005 s           0.004 s
  | Hartree multipole summation                :        0.025 s           0.025 s
  | Integration                                :        0.042 s           0.043 s
  | Solution of K.-S. eqns.                    :        0.001 s           0.001 s
  | Total energy evaluation                    :        0.001 s           0.001 s
------------------------------------------------------------

------------------------------------------------------------
          Begin self-consistency iteration #    7

  Date     :  20190722, Time     :  144420.598
------------------------------------------------------------
  Evaluating new KS density.
  Integration grid: deviation in total charge (<rho> - N_e) =  -1.776357E-14
  Pulay mixing of updated and previous charge densities.

  Evaluating partitioned Hartree potential by multipole expansion.
  | Analytical far-field extrapolation by fixed multipoles:
  | Hartree multipole sum: apparent total charge =   0.100006E+01
  Summing up the Hartree potential.
  Time summed over all CPUs for potential: real work        0.097 s, elapsed        0.098 s
  | RMS charge density error from multipole expansion :   0.497845E-03

  Integrating Hamiltonian matrix: batch-based integration.
  Time summed over all CPUs for integration: real work        0.164 s, elapsed        0.167 s

  Updating Kohn-Sham eigenvalues, eigenvectors, occupation numbers, and Fermi level.
  Solving generalized eigenproblem
  Updating Kohn-Sham eigenvalues and eigenfunctions.
  Solving real generalised eigenvalue problem by standard LAPACK (fast)
 BIG  0.999999950659924     
 FORCED TO: now -- previous           9           8           9           8
  Determining occupation numbers for Kohn-Sham eigenstates.
  | Chemical potential (Fermi level) in eV                 : -.2494E+02
  | Error in electron count due to remaining E_F inaccuracy: 0.0000E+00

  Highest occupied state (VBM) at    -25.62285858 eV
  | Occupation number:      2.00000000

  Lowest unoccupied state (CBM) at   -17.41594757 eV
  | Occupation number:      0.50000000

  Overall HOMO-LUMO gap:      8.20691101 eV.

  Total energy components:
  | Sum of eigenvalues            :         -89.80614522 Ha       -2443.74954801 eV
  | XC energy correction          :         -16.45635257 Ha        -447.80013737 eV
  | XC potential correction       :          21.14919577 Ha         575.49889791 eV
  | Free-atom electrostatic energy:         -71.49643139 Ha       -1945.51688498 eV
  | Hartree energy correction     :           6.81666505 Ha         185.49089355 eV
  | Entropy correction            :           0.00000000 Ha           0.00000000 eV
  | ---------------------------
  | Total energy                  :        -149.79306837 Ha       -4076.07677890 eV
  | Total energy, T -> 0          :        -149.79306837 Ha       -4076.07677890 eV  <-- do not rely on this value for anything but (periodic) metals
  | Electronic free energy        :        -149.79306837 Ha       -4076.07677890 eV

  Derived energy quantities:
  | Kinetic energy                :         149.46749811 Ha        4067.21756146 eV
  | Electrostatic energy          :        -282.80421391 Ha       -7695.49420299 eV
  | Energy correction for multipole
  | error in Hartree potential    :          -0.00055066 Ha          -0.01498434 eV
  | Sum of eigenvalues per atom                           :       -1221.87477400 eV
  | Total energy (T->0) per atom                          :       -2038.03838945 eV  <-- do not rely on this value for anything but (periodic) metals
  | Electronic free energy per atom                       :       -2038.03838945 eV

  Self-consistency convergence accuracy:
  | Change of charge density      :  0.6410E-03
  | Change of sum of eigenvalues  :  0.1141E+00 eV
  | Change of total energy        :  0.8794E-05 eV

  End self-consistency iteration #     7       :  max(cpu_time)    wall_clock(cpu1)
  | Time for this iteration                    :        0.106 s           0.106 s
  | Charge density update                      :        0.030 s           0.030 s
  | Density mixing                             :        0.002 s           0.002 s
  | Hartree multipole update                   :        0.004 s           0.004 s
  | Hartree multipole summation                :        0.026 s           0.025 s
  | Integration                                :        0.042 s           0.042 s
  | Solution of K.-S. eqns.                    :        0.001 s           0.002 s
  | Total energy evaluation                    :        0.000 s           0.001 s
------------------------------------------------------------

------------------------------------------------------------
          Begin self-consistency iteration #    8

  Date     :  20190722, Time     :  144420.705
------------------------------------------------------------
  Evaluating new KS density.
  Integration grid: deviation in total charge (<rho> - N_e) =   3.552714E-15
  Pulay mixing of updated and previous charge densities.

  Evaluating partitioned Hartree potential by multipole expansion.
  | Analytical far-field extrapolation by fixed multipoles:
  | Hartree multipole sum: apparent total charge =   0.999986E+00
  Summing up the Hartree potential.
  Time summed over all CPUs for potential: real work        0.097 s, elapsed        0.099 s
  | RMS charge density error from multipole expansion :   0.497928E-03

  Integrating Hamiltonian matrix: batch-based integration.
  Time summed over all CPUs for integration: real work        0.164 s, elapsed        0.168 s

  Updating Kohn-Sham eigenvalues, eigenvectors, occupation numbers, and Fermi level.
  Solving generalized eigenproblem
  Updating Kohn-Sham eigenvalues and eigenfunctions.
  Solving real generalised eigenvalue problem by standard LAPACK (fast)
 BIG  0.999786328200065     
 FORCED TO: now -- previous           9           8           9           8
  Determining occupation numbers for Kohn-Sham eigenstates.
  | Chemical potential (Fermi level) in eV                 : -.2493E+02
  | Error in electron count due to remaining E_F inaccuracy: 0.0000E+00

  Highest occupied state (VBM) at    -25.62067881 eV
  | Occupation number:      2.00000000

  Lowest unoccupied state (CBM) at   -17.41375460 eV
  | Occupation number:      0.50000000

  Overall HOMO-LUMO gap:      8.20692421 eV.

  Total energy components:
  | Sum of eigenvalues            :         -89.80482623 Ha       -2443.71365661 eV
  | XC energy correction          :         -16.45648189 Ha        -447.80365629 eV
  | XC potential correction       :          21.14936659 Ha         575.50354615 eV
  | Free-atom electrostatic energy:         -71.49643139 Ha       -1945.51688498 eV
  | Hartree energy correction     :           6.81530457 Ha         185.45387301 eV
  | Entropy correction            :           0.00000000 Ha           0.00000000 eV
  | ---------------------------
  | Total energy                  :        -149.79306837 Ha       -4076.07677872 eV
  | Total energy, T -> 0          :        -149.79306837 Ha       -4076.07677872 eV  <-- do not rely on this value for anything but (periodic) metals
  | Electronic free energy        :        -149.79306837 Ha       -4076.07677872 eV

  Derived energy quantities:
  | Kinetic energy                :         149.46797100 Ha        4067.23042942 eV
  | Electrostatic energy          :        -282.80455748 Ha       -7695.50355185 eV
  | Energy correction for multipole
  | error in Hartree potential    :          -0.00055056 Ha          -0.01498138 eV
  | Sum of eigenvalues per atom                           :       -1221.85682830 eV
  | Total energy (T->0) per atom                          :       -2038.03838936 eV  <-- do not rely on this value for anything but (periodic) metals
  | Electronic free energy per atom                       :       -2038.03838936 eV

  Self-consistency convergence accuracy:
  | Change of charge density      :  0.6996E-04
  | Change of sum of eigenvalues  :  0.3589E-01 eV
  | Change of total energy        :  0.1776E-06 eV

  End self-consistency iteration #     8       :  max(cpu_time)    wall_clock(cpu1)
  | Time for this iteration                    :        0.106 s           0.106 s
  | Charge density update                      :        0.030 s           0.030 s
  | Density mixing                             :        0.003 s           0.003 s
  | Hartree multipole update                   :        0.004 s           0.003 s
  | Hartree multipole summation                :        0.026 s           0.026 s
  | Integration                                :        0.042 s           0.042 s
  | Solution of K.-S. eqns.                    :        0.001 s           0.001 s
  | Total energy evaluation                    :        0.000 s           0.001 s
------------------------------------------------------------

------------------------------------------------------------
          Begin self-consistency iteration #    9

  Date     :  20190722, Time     :  144420.812
------------------------------------------------------------
  Evaluating new KS density.
  Integration grid: deviation in total charge (<rho> - N_e) =   2.131628E-14
  Pulay mixing of updated and previous charge densities.

  Evaluating partitioned Hartree potential by multipole expansion.
  | Analytical far-field extrapolation by fixed multipoles:
  | Hartree multipole sum: apparent total charge =   0.999994E+00
  Summing up the Hartree potential.
  Time summed over all CPUs for potential: real work        0.097 s, elapsed        0.098 s
  | RMS charge density error from multipole expansion :   0.497930E-03

  Integrating Hamiltonian matrix: batch-based integration.
  Time summed over all CPUs for integration: real work        0.164 s, elapsed        0.168 s

  Updating Kohn-Sham eigenvalues, eigenvectors, occupation numbers, and Fermi level.
  Solving generalized eigenproblem
  Updating Kohn-Sham eigenvalues and eigenfunctions.
  Solving real generalised eigenvalue problem by standard LAPACK (fast)
 BIG  0.999766175541396     
 FORCED TO: now -- previous           9           8           9           8
  Determining occupation numbers for Kohn-Sham eigenstates.
  | Chemical potential (Fermi level) in eV                 : -.2493E+02
  | Error in electron count due to remaining E_F inaccuracy: 0.0000E+00

  Highest occupied state (VBM) at    -25.62078216 eV
  | Occupation number:      2.00000000

  Lowest unoccupied state (CBM) at   -17.41386084 eV
  | Occupation number:      0.50000000

  Overall HOMO-LUMO gap:      8.20692132 eV.

  Total energy components:
  | Sum of eigenvalues            :         -89.80488950 Ha       -2443.71537827 eV
  | XC energy correction          :         -16.45647771 Ha        -447.80354244 eV
  | XC potential correction       :          21.14936113 Ha         575.50339760 eV
  | Free-atom electrostatic energy:         -71.49643139 Ha       -1945.51688498 eV
  | Hartree energy correction     :           6.81536911 Ha         185.45562938 eV
  | Entropy correction            :           0.00000000 Ha           0.00000000 eV
  | ---------------------------
  | Total energy                  :        -149.79306837 Ha       -4076.07677872 eV
  | Total energy, T -> 0          :        -149.79306837 Ha       -4076.07677872 eV  <-- do not rely on this value for anything but (periodic) metals
  | Electronic free energy        :        -149.79306837 Ha       -4076.07677872 eV

  Derived energy quantities:
  | Kinetic energy                :         149.46795335 Ha        4067.22994904 eV
  | Electrostatic energy          :        -282.80454401 Ha       -7695.50318532 eV
  | Energy correction for multipole
  | error in Hartree potential    :          -0.00055055 Ha          -0.01498126 eV
  | Sum of eigenvalues per atom                           :       -1221.85768914 eV
  | Total energy (T->0) per atom                          :       -2038.03838936 eV  <-- do not rely on this value for anything but (periodic) metals
  | Electronic free energy per atom                       :       -2038.03838936 eV

  Self-consistency convergence accuracy:
  | Change of charge density      :  0.2096E-05
  | Change of sum of eigenvalues  : -0.1722E-02 eV
  | Change of total energy        :  0.9520E-09 eV

  Electronic self-consistency reached - switching on the force computation.

  End self-consistency iteration #     9       :  max(cpu_time)    wall_clock(cpu1)
  | Time for this iteration                    :        0.106 s           0.107 s
  | Charge density & force component update    :        0.030 s           0.030 s
  | Density mixing                             :        0.003 s           0.003 s
  | Hartree multipole update                   :        0.004 s           0.004 s
  | Hartree multipole summation                :        0.025 s           0.025 s
  | Integration                                :        0.043 s           0.042 s
  | Solution of K.-S. eqns.                    :        0.001 s           0.001 s
  | Total energy evaluation                    :        0.000 s           0.000 s
------------------------------------------------------------

------------------------------------------------------------
          Begin self-consistency iteration #   10

  Date     :  20190722, Time     :  144420.920
------------------------------------------------------------
  Evaluating new KS density.
  Integration grid: deviation in total charge (<rho> - N_e) =   2.131628E-14
  Pulay mixing of updated and previous charge densities.

  Evaluating partitioned Hartree potential by multipole expansion.
  | Analytical far-field extrapolation by fixed multipoles:
  | Hartree multipole sum: apparent total charge =   0.999999E+00
  Summing up the Hartree potential.
  Time summed over all CPUs for potential: real work        0.258 s, elapsed        0.267 s
  | RMS charge density error from multipole expansion :   0.497932E-03

  Integrating Hamiltonian matrix: batch-based integration.
  Time summed over all CPUs for integration: real work        0.169 s, elapsed        0.172 s

  Updating Kohn-Sham eigenvalues, eigenvectors, occupation numbers, and Fermi level.
  Solving generalized eigenproblem
  Updating Kohn-Sham eigenvalues and eigenfunctions.
  Solving real generalised eigenvalue problem by standard LAPACK (fast)
 BIG  0.764508545405153     
 FORCED TO: now -- previous           9           8           9           8
  Determining occupation numbers for Kohn-Sham eigenstates.
  | Chemical potential (Fermi level) in eV                 : -.2493E+02
  | Error in electron count due to remaining E_F inaccuracy: 0.0000E+00

  Highest occupied state (VBM) at    -25.62077797 eV
  | Occupation number:      2.00000000

  Lowest unoccupied state (CBM) at   -17.41385398 eV
  | Occupation number:      0.50000000

  Overall HOMO-LUMO gap:      8.20692399 eV.

  Total energy components:
  | Sum of eigenvalues            :         -89.80488118 Ha       -2443.71515187 eV
  | XC energy correction          :         -16.45648070 Ha        -447.80362392 eV
  | XC potential correction       :          21.14936510 Ha         575.50350565 eV
  | Free-atom electrostatic energy:         -71.49643139 Ha       -1945.51688498 eV
  | Hartree energy correction     :           6.81535981 Ha         185.45537640 eV
  | Entropy correction            :           0.00000000 Ha           0.00000000 eV
  | ---------------------------
  | Total energy                  :        -149.79306837 Ha       -4076.07677872 eV
  | Total energy, T -> 0          :        -149.79306837 Ha       -4076.07677872 eV  <-- do not rely on this value for anything but (periodic) metals
  | Electronic free energy        :        -149.79306837 Ha       -4076.07677872 eV

  Derived energy quantities:
  | Kinetic energy                :         149.46797913 Ha        4067.23065061 eV
  | Electrostatic energy          :        -282.80456679 Ha       -7695.50380541 eV
  | Energy correction for multipole
  | error in Hartree potential    :          -0.00055055 Ha          -0.01498129 eV
  | Sum of eigenvalues per atom                           :       -1221.85757594 eV
  | Total energy (T->0) per atom                          :       -2038.03838936 eV  <-- do not rely on this value for anything but (periodic) metals
  | Electronic free energy per atom                       :       -2038.03838936 eV

  atomic forces [eV/Ang]:
  -----------------------
  atom #    1
   Hellmann-Feynman              :  0.336189E-12  0.823341E-12 -0.158244E+02
   Ionic forces                  :  0.000000E+00  0.000000E+00  0.000000E+00
   Multipole                     : -0.882832E-14  0.390068E-13 -0.592429E-01
   Pulay + GGA                   :  0.000000E+00  0.000000E+00  0.000000E+00
   ----------------------------------------------------------------
   Total forces(   1)            :  0.327361E-12  0.862347E-12 -0.158836E+02
  atom #    2
   Hellmann-Feynman              : -0.898332E-13 -0.316637E-12  0.158244E+02
   Ionic forces                  :  0.000000E+00  0.000000E+00  0.000000E+00
   Multipole                     :  0.144202E-13  0.141094E-13  0.592429E-01
   Pulay + GGA                   :  0.000000E+00  0.000000E+00  0.000000E+00
   ----------------------------------------------------------------
   Total forces(   2)            : -0.754130E-13 -0.302527E-12  0.158836E+02


  Self-consistency convergence accuracy:
  | Change of charge density      :  0.2862E-05
  | Change of sum of eigenvalues  :  0.2264E-03 eV
  | Change of total energy        :  0.6172E-09 eV
  | Change of forces              :  0.1588E+02 eV/A

  End self-consistency iteration #    10       :  max(cpu_time)    wall_clock(cpu1)
  | Time for this iteration                    :        0.166 s           0.168 s
  | Charge density & force component update    :        0.036 s           0.037 s
  | Density mixing                             :        0.006 s           0.006 s
  | Hartree multipole update                   :        0.005 s           0.004 s
  | Hartree multipole summation                :        0.068 s           0.068 s
  | Integration                                :        0.044 s           0.044 s
  | Solution of K.-S. eqns.                    :        0.006 s           0.006 s
  | Total energy evaluation                    :        0.002 s           0.002 s
------------------------------------------------------------

------------------------------------------------------------
          Begin self-consistency iteration #   11

  Date     :  20190722, Time     :  144421.090
------------------------------------------------------------
  Evaluating new KS density and force components.
  Integration grid: deviation in total charge (<rho> - N_e) =  -1.598721E-14
  Pulay mixing of updated and previous charge densities.

  Evaluating partitioned Hartree potential by multipole expansion.
  | Analytical far-field extrapolation by fixed multipoles:
  | Hartree multipole sum: apparent total charge =   0.999999E+00
  Summing up the Hartree potential.
  Time summed over all CPUs for potential: real work        0.256 s, elapsed        0.267 s
  | RMS charge density error from multipole expansion :   0.497932E-03

  Integrating Hamiltonian matrix: batch-based integration.
  Time summed over all CPUs for integration: real work        0.166 s, elapsed        0.168 s

  Updating Kohn-Sham eigenvalues, eigenvectors, occupation numbers, and Fermi level.
  Solving generalized eigenproblem
  Updating Kohn-Sham eigenvalues and eigenfunctions.
  Solving real generalised eigenvalue problem by standard LAPACK (fast)
 BIG  0.958097062146332     
 FORCED TO: now -- previous           9           8           9           8
  Determining occupation numbers for Kohn-Sham eigenstates.
  | Chemical potential (Fermi level) in eV                 : -.2493E+02
  | Error in electron count due to remaining E_F inaccuracy: 0.0000E+00

  Highest occupied state (VBM) at    -25.62077537 eV
  | Occupation number:      2.00000000

  Lowest unoccupied state (CBM) at   -17.41385130 eV
  | Occupation number:      0.50000000

  Overall HOMO-LUMO gap:      8.20692407 eV.

  Total energy components:
  | Sum of eigenvalues            :         -89.80487952 Ha       -2443.71510668 eV
  | XC energy correction          :         -16.45648088 Ha        -447.80362886 eV
  | XC potential correction       :          21.14936534 Ha         575.50351222 eV
  | Free-atom electrostatic energy:         -71.49643139 Ha       -1945.51688498 eV
  | Hartree energy correction     :           6.81535809 Ha         185.45532958 eV
  | Entropy correction            :           0.00000000 Ha           0.00000000 eV
  | ---------------------------
  | Total energy                  :        -149.79306837 Ha       -4076.07677872 eV
  | Total energy, T -> 0          :        -149.79306837 Ha       -4076.07677872 eV  <-- do not rely on this value for anything but (periodic) metals
  | Electronic free energy        :        -149.79306837 Ha       -4076.07677872 eV

  Derived energy quantities:
  | Kinetic energy                :         149.46797986 Ha        4067.23067045 eV
  | Electrostatic energy          :        -282.80456734 Ha       -7695.50382031 eV
  | Energy correction for multipole
  | error in Hartree potential    :          -0.00055055 Ha          -0.01498129 eV
  | Sum of eigenvalues per atom                           :       -1221.85755334 eV
  | Total energy (T->0) per atom                          :       -2038.03838936 eV  <-- do not rely on this value for anything but (periodic) metals
  | Electronic free energy per atom                       :       -2038.03838936 eV

  atomic forces [eV/Ang]:
  -----------------------
  atom #    1
   Hellmann-Feynman              :  0.450551E-12  0.135953E-11 -0.158244E+02
   Ionic forces                  :  0.000000E+00  0.000000E+00  0.000000E+00
   Multipole                     : -0.624421E-13  0.369008E-14 -0.592429E-01
   Pulay + GGA                   :  0.211233E-12 -0.716479E-12  0.156090E+02
   ----------------------------------------------------------------
   Total forces(   1)            :  0.599342E-12  0.646739E-12 -0.274689E+00
  atom #    2
   Hellmann-Feynman              : -0.128775E-11  0.385363E-12  0.158244E+02
   Ionic forces                  :  0.000000E+00  0.000000E+00  0.000000E+00
   Multipole                     : -0.360227E-13 -0.600797E-13  0.592429E-01
   Pulay + GGA                   :  0.675089E-12 -0.119889E-12 -0.156090E+02
   ----------------------------------------------------------------
   Total forces(   2)            : -0.648687E-12  0.205394E-12  0.274689E+00


  Self-consistency convergence accuracy:
  | Change of charge density      :  0.1393E-06
  | Change of sum of eigenvalues  :  0.4519E-04 eV
  | Change of total energy        : -0.3558E-10 eV
  | Change of forces              :  0.5622E-06 eV/A

  Writing Kohn-Sham eigenvalues.

  State    Occupation    Eigenvalue [Ha]    Eigenvalue [eV]
      1       2.00000         -19.412511         -528.24129
      2       2.00000         -19.412286         -528.23517
      3       2.00000          -1.746477          -47.52406
      4       2.00000          -1.151323          -31.32909
      5       2.00000          -0.959162          -26.10012
      6       2.00000          -0.959162          -26.10012
      7       2.00000          -0.941546          -25.62078
      8       0.50000          -0.639947          -17.41385
      9       0.50000          -0.639947          -17.41385
     10       0.00000          -0.178379           -4.85394
     11       0.00000          -0.160936           -4.37928
     12       0.00000          -0.115434           -3.14113
     13       0.00000          -0.115434           -3.14113
     14       0.00000          -0.059855           -1.62874

  Highest occupied state (VBM) at    -25.62077537 eV
  | Occupation number:      2.00000000

  Lowest unoccupied state (CBM) at   -17.41385130 eV
  | Occupation number:      0.50000000

  Overall HOMO-LUMO gap:      8.20692407 eV.

  Self-consistency cycle converged.

  End self-consistency iteration #    11       :  max(cpu_time)    wall_clock(cpu1)
  | Time for this iteration                    :        0.225 s           0.229 s
  | Charge density & force component update    :        0.103 s           0.103 s
  | Density mixing                             :        0.002 s           0.003 s
  | Hartree multipole update                   :        0.004 s           0.005 s
  | Hartree multipole summation                :        0.067 s           0.067 s
  | Integration                                :        0.042 s           0.043 s
  | Solution of K.-S. eqns.                    :        0.001 s           0.001 s
  | Total energy evaluation                    :        0.002 s           0.003 s
------------------------------------------------------------
  Writing cluster restart information to file restart
  ------------------------------------------------------------
   Computing monopole / dipole moments for complete molecule:
  | Total electronic charge [e]         :          0.150000000279274E+02
  | Total ionic charge [e]              :          0.160000000000000E+02
  | Total charge [e]                    :          0.999999972072640E+00
 * Warning: The system has a total charge of      0.99999997 .
 * The dipole moment depends on the choice of the origin.
  | Total dipole moment [eAng]          :          0.572817104582679E-15        -0.124110372659580E-14         0.604999983103616E+00
  | Absolute dipole moment              :          0.604999983103616E+00 eAng              /                   0.290548587646114E+01 Debye  .
  Removing unitary transformations (pure translations, rotations) from forces on atoms.
  Atomic forces before filtering:
  | Net force on center of mass :  -0.493450E-13  0.852133E-12  0.468748E-10 eV/A
  | Net torque on center of mass:   0.247215E-12 -0.699072E-12  0.000000E+00 eV
  Atomic forces after filtering:
  | Net force on center of mass :  -0.101412E-28  0.162259E-27  0.000000E+00 eV/A
  | Net torque on center of mass:  -0.908882E-28  0.181776E-27  0.000000E+00 eV

  Energy and forces in a compact form:
  | Total energy uncorrected      :         -0.407607677871735E+04 eV
  | Total energy corrected        :         -0.407607677871735E+04 eV  <-- do not rely on this value for anything but (periodic) metals
  | Electronic free energy        :         -0.407607677871735E+04 eV
  Total atomic forces (unitary forces cleaned) [eV/Ang]:
  |   1         -0.167330031677047E-27          0.000000000000000E+00         -0.274689042240101E+00
  |   2          0.157188817636014E-27          0.162259424656531E-27          0.274689042240101E+00

  ------------------------------------ 
  Start decomposition of the XC Energy 
  ------------------------------------ 
  Hartree-Fock part   :          0.000000000 Ha              0.000000000 eV
  ------------------------------------ 
  X Energy            :        -15.952862802 Ha           -434.099483579 eV
  C Energy GGA        :         -0.503618082 Ha            -13.704145278 eV
  Total XC Energy     :        -16.456480884 Ha           -447.803628857 eV
  LDA X and C from self-consistent density 
  X Energy LDA        :        -14.468619334 Ha           -393.711163868 eV
  C Energy LDA        :         -1.061785354 Ha            -28.892649535 eV
  ------------------------------------ 
  End decomposition of the XC Energy 
  ------------------------------------ 

------------------------------------------------------------------------------
  Final output of selected total energy values:

  The following output summarizes some interesting total energy values
  at the end of a run (AFTER all relaxation, molecular dynamics, etc.).

  | Total energy of the DFT / Hartree-Fock s.c.f. calculation      :          -4076.076778717 eV
  | Final zero-broadening corrected energy (caution - metals only) :          -4076.076778717 eV
  | For reference only, the value of 1 Hartree used in FHI-aims is :             27.211384500 eV

  Before relying on these values, please be sure to understand exactly which
  total energy value is referred to by a given number. Different objects may
  all carry the same name 'total energy'. Definitions:

  Total energy of the DFT / Hartree-Fock s.c.f. calculation:
  | Note that this energy does not include ANY quantities calculated after the
  | s.c.f. cycle, in particular not ANY RPA, MP2, etc. many-body perturbation terms.

  Final zero-broadening corrected energy:
  | For metallic systems only, a broadening of the occupation numbers at the Fermi
  | level can be extrapolated back to zero broadening by an electron-gas inspired
  | formula. For all systems that are not real metals, this value can be
  | meaningless and should be avoided.

------------------------------------------------------------------------------
  Methods described in the following list of references were used in this FHI-aims run.
  If you publish the results, please make sure to cite these reference if they apply.
  FHI-aims is an academic code, and for our developers (often, Ph.D. students
  and postdocs), scientific credit in the community is essential.
  Thank you for helping us!

  For any use of FHI-aims, please cite:

    Volker Blum, Ralf Gehrke, Felix Hanke, Paula Havu, Ville Havu,
    Xinguo Ren, Karsten Reuter, and Matthias Scheffler
    'Ab initio molecular simulations with numeric atom-centered orbitals'
    Computer Physics Communications 180, 2175-2196 (2009)
    http://dx.doi.org/10.1016/j.cpc.2009.06.022


  For the real-space grid partitioning and parallelization used in this calculation, please cite:

    Ville Havu, Volker Blum, Paula Havu, and Matthias Scheffler,
    'Efficient O(N) integration for all-electron electronic structure calculation'
    'using numerically tabulated basis functions'
    Journal of Computational Physics 228, 8367-8379 (2009).
    http://dx.doi.org/10.1016/j.jcp.2009.08.008

  Of course, there are many other important community references, e.g., those cited in the
  above references. Our list is limited to references that describe implementations in the
  FHI-aims code. The reason is purely practical (length of this list) - please credit others as well.

------------------------------------------------------------
          Leaving FHI-aims.
          Date     :  20190722, Time     :  144421.367

          Computational steps:
          | Number of self-consistency cycles          :           11

          Detailed time accounting                     :  max(cpu_time)    wall_clock(cpu1)
          | Total time                                 :        1.806 s           1.827 s
          | Preparation time                           :        0.144 s           0.160 s
          | Grid partitioning                          :        0.024 s           0.024 s
          | Preloading free-atom quantities on grid    :        0.017 s           0.017 s
          | Free-atom superposition energy             :        0.009 s           0.009 s
          | Total time for integrations                :        0.569 s           0.569 s
          | Total time for solution of K.-S. equations :        0.027 s           0.029 s
          | Total time for density & force components  :        0.442 s           0.441 s
          | Total time for mixing                      :        0.028 s           0.028 s
          | Total time for Hartree multipole update    :        0.053 s           0.045 s
          | Total time for Hartree multipole sum       :        0.393 s           0.391 s
          | Total time for total energy evaluation     :        0.007 s           0.016 s

          Have a nice day.
------------------------------------------------------------
