  MPI-parallelism will be employed.
------------------------------------------------------------
          Invoking FHI-aims ...
          Version 160328_3
          Compiled on 2019/06/10 at 14:55:49 on host taito-login3.csc.fi.

          When using FHI-aims, please cite the following reference:

          Volker Blum, Ralf Gehrke, Felix Hanke, Paula Havu,
          Ville Havu, Xinguo Ren, Karsten Reuter, and Matthias Scheffler,
          'Ab Initio Molecular Simulations with Numeric Atom-Centered Orbitals',
          Computer Physics Communications 180, 2175-2196 (2009)

          For any questions about FHI-aims, please visit the aimsclub website
          with its forums and wiki. Contributions to both the forums and the
          wiki are warmly encouraged - they are for you, and everyone is welcome there.

------------------------------------------------------------

  Date     :  20190722, Time     :  144433.816
  Time zero on CPU 1             :   0.569910000000000E-01  s.
  Internal wall clock time zero  :           333038673.816  s.

  Using        4 parallel tasks.
  Task        0 on host c798 reporting.
  Task        1 on host c798 reporting.
  Task        2 on host c798 reporting.
  Task        3 on host c798 reporting.

  Performing system and environment tests:
  | Environment variable OMP_NUM_THREADS correctly set to 1.
  | Maximum stacksize for task 0: unlimited
  | Maximum stacksize for task 1: unlimited
  | Maximum stacksize for task 2: unlimited
  | Maximum stacksize for task 3: unlimited
  | Current stacksize for task 0: 1024 [Mb]
  | Current stacksize for task 1: 1024 [Mb]
  | Current stacksize for task 2: 1024 [Mb]
  | Current stacksize for task 3: 1024 [Mb]
  | Checking for scalapack...
  | No scalapack compiled in.

  Obtaining array dimensions for all initial allocations:
  
  -----------------------------------------------------------------------
  Parsing control.in (first pass over file, find array dimensions only).
  The contents of control.in will be repeated verbatim below
  unless switched off by setting 'verbatim_writeout .false.' .
  in the first line of control.in .
  -----------------------------------------------------------------------
  
    #  Physical model settings
    #
  
    xc                            pbe
    charge                        1.0
    relativistic                  none
  #  default_initial_moment        0.0
    spin                          none
  #  vdw_correction_hirshfeld
  
    #  SCF convergence settings
    #
  
    sc_accuracy_rho               1E-4
    sc_accuracy_eev               1E-2
    sc_accuracy_etot              1E-8
    sc_iter_limit                 100
  
    #  Occupation settings
    #
  
    restart                       restart
    force_occupation_projector      9 1 0.5 8 9 # ion 0
    force_occupation_projector      8 1 0.5 8 9 # ion 0
  
    #  Relaxation
    #
  
    ############relax_geometry                bfgs    1.e-4
  
  
  ################################################################################
  #
  #  FHI-aims code project
  #  VB, Fritz-Haber Institut, 2007
  #
  #  Suggested "safe" defaults for O atom (to be pasted into control.in file)
  #
  ################################################################################
    species        O
  #     global species definitions
      nucleus             8
      mass                15.9994
  #
      l_hartree           8
  #
      cut_pot             4.0  2.0  1.0
      basis_dep_cutoff    0.d0
  #
      radial_base         36 7.0
      radial_multiplier   2
       angular_grids specified
        division   0.4087  110
        division   0.5181  194
        division   0.6184  302
        division   0.7315  434
        division   0.7934  590
  #      division   0.9656  770
  #      division   1.4041  974
  #      outer_grid 974
        outer_grid 590
  ################################################################################
  #
  #  Definition of "minimal" basis
  #
  ################################################################################
  #     valence basis states
      valence      2  s   2.
      valence      2  p   4.
  #     ion occupancy
      ion_occ      2  s   1.
      ion_occ      2  p   3.
  ################################################################################
  #
  #  Suggested additional basis functions. For production calculations,
  #  uncomment them one after another (the most important basis functions are
  #  listed first).
  #
  #  Constructed for dimers: 1.0 A, 1.208 A, 1.5 A, 2.0 A, 3.0 A
  #
  ################################################################################
  #  "First tier" - improvements: -699.05 meV to -159.38 meV
       hydro 2 p 1.8
       hydro 3 d 7.6
       hydro 3 s 6.4
  #  "Second tier" - improvements: -49.91 meV to -5.39 meV
       hydro 4 f 11.6
       hydro 3 p 6.2
       hydro 3 d 5.6
       hydro 5 g 17.6
       hydro 1 s 0.75
  #  "Third tier" - improvements: -2.83 meV to -0.50 meV
  #     ionic 2 p auto
  #     hydro 4 f 10.8
  #     hydro 4 d 4.7
  #     hydro 2 s 6.8
  #  "Fourth tier" - improvements: -0.40 meV to -0.12 meV
  #     hydro 3 p 5
  #     hydro 3 s 3.3
  #     hydro 5 g 15.6
  #     hydro 4 f 17.6
  #     hydro 4 d 14
  # Further basis functions - -0.08 meV and below
  #     hydro 3 s 2.1
  #     hydro 4 d 11.6
  #     hydro 3 p 16
  #     hydro 2 s 17.2
  compute_forces .true.
  final_forces_cleaned .true.
  output dipole
  
  -----------------------------------------------------------------------
  Completed first pass over input file control.in .
  -----------------------------------------------------------------------
  
  
  -----------------------------------------------------------------------
  Parsing geometry.in (first pass over file, find array dimensions only).
  The contents of geometry.in will be repeated verbatim below
  unless switched off by setting 'verbatim_writeout .false.' .
  in the first line of geometry.in .
  -----------------------------------------------------------------------
  
  #
  # temporary structure-file for finite-difference calculation of forces
  # displacement   0.0025 of \# atom     1 direction     2
  #
  atom   -0.00000000    0.00000000    0.04235893   O
  atom   -0.00000000    0.00000000    1.16764107   O
  
  -----------------------------------------------------------------------
  Completed first pass over input file geometry.in .
  -----------------------------------------------------------------------
  

  Basic array size parameters:
  | Number of species                 :        1
  | Number of atoms                   :        2
  | Max. basis fn. angular momentum   :        4
  | Max. atomic/ionic basis occupied n:        2
  | Max. number of basis fn. types    :        2
  | Max. radial fns per species/type  :        8
  | Max. logarithmic grid size        :     1301
  | Max. radial integration grid size :       73
  | Max. angular integration grid size:      590
  | Max. angular grid division number :        8
  | Radial grid for Hartree potential :     1301
  | Number of spin channels           :        1

------------------------------------------------------------
          Reading file control.in.
------------------------------------------------------------
  XC: Using PBE gradient-corrected functionals.
  Charged system requested: Charge =   0.100000E+01.
  Non-relativistic treatment of kinetic energy.
  Spin treatment: No spin polarisation.
  Convergence accuracy of self-consistent charge density:  0.1000E-03
  Convergence accuracy of sum of eigenvalues:  0.1000E-01
  Convergence accuracy of total energy:  0.1000E-07
  Maximum number of s.-c. iterations  :   100
  Restart file specified as : restart
  | Reading information from existing file.
  Occupation forced using projector   1        9   0.50000000
  Occupation forced using projector   1        8   0.50000000
 
  Reading configuration options for species O                   .
  | Found nuclear charge :   8.0000
  | Found atomic mass :    15.9994000000000      amu
  | Found l_max for Hartree potential  :   8
  | Found cutoff potl. onset [A], width [A], scale factor :    4.00000    2.00000    1.00000
  | Threshold for basis-dependent cutoff potential is   0.000000E+00
  | Found data for basic radial integration grid :    36 points, outermost radius =    7.000 A
  | Found multiplier for basic radial grid :   2
  | Found angular grid specification: user-specified.
  | Specified grid contains     6 separate shells.
  | Check grid settings after all constraints further below.
  | Found free-atom valence shell :  2 s   2.000
  | Found free-atom valence shell :  2 p   4.000
  | No ionic wave fns used. Skipping ion_occ.
  | No ionic wave fns used. Skipping ion_occ.
  | Found hydrogenic basis function :  2 p   1.800
  | Found hydrogenic basis function :  3 d   7.600
  | Found hydrogenic basis function :  3 s   6.400
  | Found hydrogenic basis function :  4 f  11.600
  | Found hydrogenic basis function :  3 p   6.200
  | Found hydrogenic basis function :  3 d   5.600
  | Found hydrogenic basis function :  5 g  17.600
  | Found hydrogenic basis function :  1 s   0.750
  Species O                   : Missing cutoff potential type.
  Defaulting to exp(1/x)/(1-x)^2 type cutoff potential.
  Species O : No 'logarithmic' tag. Using default grid for free atom:
  | Default logarithmic grid data [bohr] : 0.1000E-03 0.1000E+03 0.1012E+01
  Species O : On-site basis accuracy parameter (for Gram-Schmidt orthonormalisation) not specified.
  Using default value basis_acc =  0.1000000E-03.
  Species O                   : Using default innermost maximum threshold i_radial=  2 for radial functions.
  Species O                   : Default cutoff onset for free atom density etc. : 0.40000000E+01 AA.
  Species O                   : Basic radial grid will be enhanced according to radial_multiplier =   2, to contain    73 grid points.
  Forces will be computed.
  Cleaning forces before final output.
  Dipole moment will be written out.
 
  Finished reading input file 'control.in'. Consistency checks are next.
 
  Target number of points in a grid batch is not set. Defaulting to  100
  Method for grid partitioning is not set. Defaulting to parallel hash+maxmin partitioning.
  Batch size limit is not set. Defaulting to    200
  By default, will store active basis functions for each batch.
  If in need of memory, prune_basis_once .false. can be used to disable this option.
  communication_type for Hartree potential was not specified.
  Defaulting to calc_hartree .
  Defaulting to Pulay charge density mixer.
  Pulay mixer: Number of relevant iterations not set.
  Defaulting to    8 iterations.
  Pulay mixer: Number of initial linear mixing iterations not set.
  Defaulting to    0 iterations.
  Work space size for distributed Hartree potential not set.
  Defaulting to   0.200000E+03 MB.
  Mixing parameter for charge density mixing has not been set.
  Using default: charge_mix_param =     0.2000.
  Algorithm-dependent basis array size parameters:
  | n_max_pulay                         :        8
  Geometry relaxation not requested: no relaxation will be performed.
  Force calculation: scf convergence accuracy of forces not set.
  Defaulting to  0.1000E-03 eV/A.
  Handling of forces: Unphysical translation and rotation will be removed from forces.
  No accuracy limit for integral partition fn. given. Defaulting to  0.1000E-14.
  No threshold value for u(r) in integrations given. Defaulting to  0.1000E-05.
  No occupation type (smearing scheme) given. Defaulting to Gaussian broadening, width =  0.1000E-01 eV.
  No accuracy for occupation numbers given. Defaulting to  0.1000E-07.
  No threshold value for occupation numbers given. Defaulting to  0.0000E+00.
  No accuracy for fermi level given. Defaulting to  0.1000E-19.
  Maximum # of iterations to find E_F not set. Defaulting to  200.
  Preferred method for the eigenvalue solver ('KS_method') not specified in 'control.in'.
  Calling blacs routine to test compilation state
  The best choice would be 'elpa', but your version of FHI-aims is compiled without scalapack support.
  Defaulting to 'lapack_fast' instead (serial solution, time will not improve with more CPUs).
  Will not use alltoall communication since running on < 1024 CPUs.
  Threshold for basis singularities not set.
  Default threshold for basis singularities:  0.1000E-04
  partition_type (choice of integration weights) for integrals was not specified.
  | Using a version of the partition function of Stratmann and coworkers ('stratmann_smoother').
  | At each grid point, the set of atoms used to build the partition table is smoothly restricted to
  | only those atoms whose free-atom density would be non-zero at that grid point.
  Partitioning for Hartree potential was not defined. Using partition_type for integrals.
  | Adjusted default value of keyword multip_moments_threshold to:       0.10000000E-11
  | This value may affect high angular momentum components of the Hartree potential in periodic systems.
  No q(lm)/r^(l+1) cutoff set for long-range Hartree potential.
  | Using default value of  0.100000E-09 .
  | Verify using the multipole_threshold keyword.
  Defaulting to new monopole extrapolation.
  Density update method: automatic selection selected.
------------------------------------------------------------


------------------------------------------------------------
          Reading geometry description geometry.in.
------------------------------------------------------------
 * Warning: Initial charge and total charge of the system are inconsistent.
 * Selected charge in control.in:     1.0000* Sum of initial charges in geometry.in:     0.0000
  Input structure read successfully.
  The structure contains        2 atoms,  and a total of         15.000 electrons.

  Input geometry:
  | No unit cell requested.
  | Atomic structure:
  |       Atom                x [A]            y [A]            z [A]
  |    1: Species O              0.000000         0.000000         0.042359
  |    2: Species O              0.000000         0.000000         1.167641
  |

  | The smallest distance between any two atoms is         1.12528214 AA.
  |
  | The first atom of this pair is atom number                      1 .
  | The second atom of this pair is atom number                     2 .

  Number of empty states per atom not set in control.in - providing a guess from actual geometry.
  | Total number of empty states used during s.c.f. cycle:        6
  If you use a very high smearing, use empty_states (per atom!) in control.in to increase this value.

  Structure-dependent array size parameters: 
  | Maximum number of distinct radial functions  :       11
  | Maximum number of basis functions            :       78
  | Number of Kohn-Sham states (occupied + empty):       14
------------------------------------------------------------

------------------------------------------------------------
          Preparing all fixed parts of the calculation.
------------------------------------------------------------
  Determining machine precision:
    2.225073858507201E-308
  Setting up grids for atomic and cluster calculations.

  Creating wave function, potential, and density for free atoms.

  Species: O

  List of occupied orbitals and eigenvalues:
    n    l              occ      energy [Ha]    energy [eV]
    1    0           2.0000       -18.898576      -514.2564
    2    0           2.0000        -0.878795       -23.9132
    2    1           4.0000        -0.332075        -9.0362

  Creating fixed part of basis set: Ionic, confined, hydrogenic.
 
  O                    hydrogenic:
 
  List of hydrogenic basis orbitals: 
    n    l      effective z      eigenvalue [eV]  inner max. [A]     outer max. [A]     outer radius [A]   
    2    1         1.800000       -11.0118           1.178562           1.178562           5.432602
    3    2         7.600000       -87.3183           0.624125           0.624125           4.634338
    3    0         6.400000       -61.9210           0.061167           1.081902           5.110480
    4    3        11.600000      -114.4239           0.731631           0.731631           4.522403
    3    1         6.200000       -58.1114           0.255680           1.030270           5.110480
    3    2         5.600000       -47.4083           0.847233           0.847233           5.173339
    5    4        17.600000      -168.5800           0.749740           0.749740           4.051222
    1    0         0.750000        -7.6499           0.705284           0.705284           5.366593
 

  Adding cutoff potential to free-atom effective potential.
  Creating atomic-like basis functions for current effective potential.

  Species O                   :

  List of atomic basis orbitals and eigenvalues:
    n    l      energy [Ha]    energy [eV]    outer radius [A]
    1    0       -18.898576      -514.2564       1.415765
    2    0        -0.878795       -23.9132       5.048385
    2    1        -0.332075        -9.0362       5.301386

  Assembling full basis from fixed parts.
  | Species O :   atomic orbital   1 s accepted.
  | Species O :   atomic orbital   2 s accepted.
  | Species O :    hydro orbital   3 s accepted.
  | Species O :    hydro orbital   1 s accepted.
  | Species O :   atomic orbital   2 p accepted.
  | Species O :    hydro orbital   2 p accepted.
  | Species O :    hydro orbital   3 p accepted.
  | Species O :    hydro orbital   3 d accepted.
  | Species O :    hydro orbital   3 d accepted.
  | Species O :    hydro orbital   4 f accepted.
  | Species O :    hydro orbital   5 g accepted.
 
  Basis size parameters after reduction:
  | Total number of radial functions:       11
  | Total number of basis functions :       78
 
  Testing on-site integration grid accuracy.
  |  Species  Function  <phi|h_atom|phi> (log., in eV)  <phi|h_atom|phi> (rad., in eV)
           1        1               -514.2564144315               -514.2564099626
           1        2                -23.9132357102                -23.9132356433
           1        3                 17.5398579759                 17.5398338425
           1        4                 14.5207278950                 14.5207740449
           1        5                 -9.0362392718                 -9.0362394845
           1        6                  7.9056275927                  7.9056237490
           1        7                 33.4201658992                 33.4201612015
           1        8                 45.8231952720                 45.8231953152
           1        9                 52.1937595491                 52.1937593440
           1       10                 85.4062894308                 85.4062894578
           1       11                142.0975701139                142.0975701391

  Preparing densities etc. for the partition functions (integrals / Hartree potential).

  Preparations completed.
  max(cpu_time)          :      0.141 s.
  Wall clock time (cpu1) :      0.150 s.
------------------------------------------------------------

------------------------------------------------------------
          Begin self-consistency loop: Initialization.

          Date     :  20190722, Time     :  144433.979
------------------------------------------------------------

  Initializing index lists of integration centers etc. from given atomic structure:
  | Number of centers in hartree potential         :         2
  | Number of centers in hartree multipole         :         2
  | Number of centers in electron density summation:         2
  | Number of centers in basis integrals           :         2
  | Number of centers in integrals                 :         2
  | Number of centers in hamiltonian               :         2
  Partitioning the integration grid into batches with parallel hashing+maxmin method.
  | Number of batches:      841
  | Maximal batch size:     118
  | Minimal batch size:      49
  | Average batch size:      63.329
  | Standard deviation of batch sizes:      17.985

  Integration load balanced across     4 MPI tasks.
  Work distribution over tasks is as follows:
  Task     0 has      13274 integration points.
  Task     1 has      13335 integration points.
  Task     2 has      13370 integration points.
  Task     3 has      13281 integration points.
  Initializing partition tables, free-atom densities, potentials, etc. across the integration grid (initialize_grid_storage).
  | initialize_grid_storage: Actual outermost partition radius vs. multipole_radius_free
  | (-- VB: in principle, multipole_radius_free should be larger, hence this output)
  | Species        1: Confinement radius =              6.000000000000000 AA, multipole_radius_free =              6.064445521808699 AA.
  | Species        1: outer_partition_radius set to              6.064445521808699 AA .
  | Original list of interatomic distances with           2 x          2 entries is created.
  | Net number of integration points:    53260
  | of which are non-zero points    :    50010
  Obtaining max. number of non-zero basis functions in each batch (get_n_compute_maxes).
  | Maximal number of non-zero basis functions:       78 in task     0
  | Maximal number of non-zero basis functions:       78 in task     1
  | Maximal number of non-zero basis functions:       78 in task     2
  | Maximal number of non-zero basis functions:       78 in task     3
  Selecting the method for density update.
  Loop over occupied states selected for charge density update.
  Integrating Hamiltonian matrix: batch-based integration.
  Time summed over all CPUs for integration: real work        0.169 s, elapsed        0.169 s
  Integrating overlap matrix.
  Time summed over all CPUs for integration: real work        0.061 s, elapsed        0.061 s

  Reading cluster restart information from file restart
  Writing Kohn-Sham eigenvalues.

  State    Occupation    Eigenvalue [Ha]    Eigenvalue [eV]
      1       2.00000         -18.890116         -514.02622
      2       2.00000         -18.889903         -514.02042
      3       2.00000          -1.264962          -34.42136
      4       2.00000          -0.702169          -19.10699
      5       2.00000          -0.501484          -13.64607
      6       2.00000          -0.501484          -13.64607
      7       2.00000          -0.494530          -13.45685
      8       1.00000          -0.187743           -5.10873
      9       1.00000          -0.187743           -5.10873
     10       0.00000           0.098767            2.68759
     11       0.00000           0.105011            2.85750
     12       0.00000           0.133245            3.62577
     13       0.00000           0.000000            0.00000
     14       0.00000           0.000000            0.00000

  Highest occupied state (VBM) at     -5.10873430 eV
  | Occupation number:      1.00000036

  Lowest unoccupied state (CBM) at    -5.10873429 eV
  | Occupation number:      0.99999964

  Overall HOMO-LUMO gap:      0.00000001 eV.
*** get_ev_sum_p0 expected pure occ_numbers
*** sum(occ_numbers) =  1.6000000000000000E+01 instead of  1.5000000000000000E+01
  Calculating total energy contributions from superposition of free atom densities.
*** get_entropy_correction expected pure occ_numbers
*** sum(occ_numbers) =  1.6000000000000000E+01 instead of  1.5000000000000000E+01
*** get_penalty_energy expected pure occ_numbers
*** sum(occ_numbers) =  1.6000000000000000E+01 instead of  1.5000000000000000E+01

  Total energy components:
  | Sum of eigenvalues            :         -82.86478140 Ha       -2254.86542820 eV
  | XC energy correction          :         -16.81893123 Ha        -457.66640445 eV
  | XC potential correction       :          21.62474804 Ha         588.43933364 eV
  | Free-atom electrostatic energy:         -71.52331217 Ha       -1946.24834828 eV
  | Hartree energy correction     :           0.00000000 Ha           0.00000000 eV
  | Entropy correction            :          -0.00020734 Ha          -0.00564190 eV
  | ---------------------------
  | Total energy                  :        -149.58227676 Ha       -4070.34084728 eV
  | Total energy, T -> 0          :        -149.58248410 Ha       -4070.34648918 eV  <-- do not rely on this value for anything but (periodic) metals
  | Electronic free energy        :        -149.58269143 Ha       -4070.35213107 eV

  Derived energy quantities:
  | Kinetic energy                :         150.54623021 Ha        4096.57135529 eV
  | Electrostatic energy          :        -283.30957574 Ha       -7709.24579812 eV
  | Energy correction for multipole
  | error in Hartree potential    :           0.00000000 Ha           0.00000000 eV
  | Sum of eigenvalues per atom                           :       -1127.43271410 eV
  | Total energy (T->0) per atom                          :       -2035.17324459 eV  <-- do not rely on this value for anything but (periodic) metals
  | Electronic free energy per atom                       :       -2035.17606554 eV
  Initialize hartree_potential_storage
  Max. number of atoms included in rho_multipole:            2

  End scf initialization - timings             :  max(cpu_time)    wall_clock(cpu1)
  | Time for scf. initialization               :        0.123 s           0.122 s
  | Boundary condition initialization          :        0.000 s           0.001 s
  | Integration                                :        0.059 s           0.059 s
  | Solution of K.-S. eqns.                    :        0.001 s           0.001 s
  | Grid partitioning                          :        0.021 s           0.022 s
  | Preloading free-atom quantities on grid    :        0.018 s           0.018 s
  | Free-atom superposition energy             :        0.008 s           0.008 s
  | Total energy evaluation                    :        0.001 s           0.002 s
------------------------------------------------------------

------------------------------------------------------------
          Initial SCF-cycle to compute last known
          density from restart information.

  Date     :  20190722, Time     :  144434.101
------------------------------------------------------------
*** scf_solver:charge expected kweighted occ_numbers
*** sum(occ_numbers) =  1.6000000000000000E+01 instead of  1.5000000000000000E+01
  Evaluating new KS density.
*** update_density_and_forces_p2 expected kweighted occ_numbers
*** sum(occ_numbers) =  1.6000000000000000E+01 instead of  1.5000000000000000E+01
  Integration grid: deviation in total charge (<rho> - N_e) =   1.000000E+00

  Evaluating partitioned Hartree potential by multipole expansion.
  | Analytical far-field extrapolation by fixed multipoles:
  | Hartree multipole sum: apparent total charge =  -0.105725E-06
  Summing up the Hartree potential.
  Time summed over all CPUs for potential: real work        0.115 s, elapsed        0.165 s
  | RMS charge density error from multipole expansion :   0.641539E-03

  Integrating Hamiltonian matrix: batch-based integration.
  Time summed over all CPUs for integration: real work        0.167 s, elapsed        0.168 s

  Updating Kohn-Sham eigenvalues, eigenvectors, occupation numbers, and Fermi level.
  Solving generalized eigenproblem
  Updating Kohn-Sham eigenvalues and eigenfunctions.
  Transforming overlap matrix and checking for singularities.
  Overlap matrix is nonsingular:
  | Lowest eigenvalue:  0.187908E-03
  Solving real generalised eigenvalue problem by standard LAPACK (fast)
 BIG   1.00000000000034     
 FORCED TO: now -- previous           8           9           9           8
  Determining occupation numbers for Kohn-Sham eigenstates.
  | Chemical potential (Fermi level) in eV                 : -.8094E+01
  | Error in electron count due to remaining E_F inaccuracy: 0.0000E+00

  Highest occupied state (VBM) at    -13.45685249 eV
  | Occupation number:      2.00000000

  Lowest unoccupied state (CBM) at    -5.10873607 eV
  | Occupation number:      0.50000000

  Overall HOMO-LUMO gap:      8.34811641 eV.

  Total energy components:
  | Sum of eigenvalues            :         -82.67703995 Ha       -2249.75672350 eV
  | XC energy correction          :         -16.91326429 Ha        -460.23333763 eV
  | XC potential correction       :          21.74738632 Ha         591.77649089 eV
  | Free-atom electrostatic energy:         -71.52331217 Ha       -1946.24834828 eV
  | Hartree energy correction     :          -0.64804465 Ha         -17.63419224 eV
  | Entropy correction            :           0.00000000 Ha           0.00000000 eV
  | ---------------------------
  | Total energy                  :        -150.01427475 Ha       -4082.09611076 eV
  | Total energy, T -> 0          :        -150.01427475 Ha       -4082.09611076 eV  <-- do not rely on this value for anything but (periodic) metals
  | Electronic free energy        :        -150.01427475 Ha       -4082.09611076 eV

  Derived energy quantities:
  | Kinetic energy                :         150.38318426 Ha        4092.13464935 eV
  | Electrostatic energy          :        -283.48419473 Ha       -7713.99742248 eV
  | Energy correction for multipole
  | error in Hartree potential    :          -0.00058630 Ha          -0.01595408 eV
  | Sum of eigenvalues per atom                           :       -1124.87836175 eV
  | Total energy (T->0) per atom                          :       -2041.04805538 eV  <-- do not rely on this value for anything but (periodic) metals
  | Electronic free energy per atom                       :       -2041.04805538 eV

  Self-consistency convergence accuracy:
  | Change of charge density      :  0.1358E+00
  | Change of sum of eigenvalues  :  0.5109E+01 eV
  | Change of total energy        : -0.1176E+02 eV

  End self-consistency iteration #     0       :  max(cpu_time)    wall_clock(cpu1)
  | Time for this iteration                    :        0.129 s           0.130 s
  | Charge density update                      :        0.032 s           0.032 s
  | Density mixing                             :        0.000 s           0.000 s
  | Hartree multipole update                   :        0.004 s           0.004 s
  | Hartree multipole summation                :        0.043 s           0.043 s
  | Integration                                :        0.042 s           0.042 s
  | Solution of K.-S. eqns.                    :        0.007 s           0.007 s
  | Total energy evaluation                    :        0.001 s           0.000 s
------------------------------------------------------------

------------------------------------------------------------
          Begin self-consistency iteration #    1

  Date     :  20190722, Time     :  144434.232
------------------------------------------------------------
  Evaluating new KS density.
  Integration grid: deviation in total charge (<rho> - N_e) =   0.000000E+00
  Pulay mixing of updated and previous charge densities.

  Evaluating partitioned Hartree potential by multipole expansion.
  | Analytical far-field extrapolation by fixed multipoles:
  | Hartree multipole sum: apparent total charge =   0.200000E+00
  Summing up the Hartree potential.
  Time summed over all CPUs for potential: real work        0.096 s, elapsed        0.096 s
  | RMS charge density error from multipole expansion :   0.564999E-03

  Integrating Hamiltonian matrix: batch-based integration.
  Time summed over all CPUs for integration: real work        0.167 s, elapsed        0.168 s

  Updating Kohn-Sham eigenvalues, eigenvectors, occupation numbers, and Fermi level.
  Solving generalized eigenproblem
  Updating Kohn-Sham eigenvalues and eigenfunctions.
  Solving real generalised eigenvalue problem by standard LAPACK (fast)
 BIG  0.999259266197594     
 FORCED TO: now -- previous           8           9           8           9
  Determining occupation numbers for Kohn-Sham eigenstates.
  | Chemical potential (Fermi level) in eV                 : -.9606E+01
  | Error in electron count due to remaining E_F inaccuracy: 0.0000E+00

  Writing Kohn-Sham eigenvalues.

  State    Occupation    Eigenvalue [Ha]    Eigenvalue [eV]
      1       2.00000         -19.044923         -518.23873
      2       2.00000         -19.044711         -518.23297
      3       2.00000          -1.389019          -37.79714
      4       2.00000          -0.813688          -22.14157
      5       2.00000          -0.615386          -16.74549
      6       2.00000          -0.615385          -16.74549
      7       2.00000          -0.605900          -16.48737
      8       0.50000          -0.300970           -8.18982
      9       0.50000          -0.300970           -8.18982
     10       0.00000           0.042824            1.16530
     11       0.00000           0.049510            1.34724
     12       0.00000           0.078302            2.13071
     13       0.00000           0.078302            2.13072
     14       0.00000           0.157571            4.28773

  Highest occupied state (VBM) at    -16.48736689 eV
  | Occupation number:      2.00000000

  Lowest unoccupied state (CBM) at    -8.18981709 eV
  | Occupation number:      0.50000000

  Overall HOMO-LUMO gap:      8.29754980 eV.

  Total energy components:
  | Sum of eigenvalues            :         -84.55899541 Ha       -2300.96733708 eV
  | XC energy correction          :         -16.76082628 Ha        -456.08528841 eV
  | XC potential correction       :          21.54776925 Ha         586.34463427 eV
  | Free-atom electrostatic energy:         -71.52331217 Ha       -1946.24834828 eV
  | Hartree energy correction     :           1.37746402 Ha          37.48270315 eV
  | Entropy correction            :           0.00000000 Ha           0.00000000 eV
  | ---------------------------
  | Total energy                  :        -149.91790059 Ha       -4079.47363634 eV
  | Total energy, T -> 0          :        -149.91790059 Ha       -4079.47363634 eV  <-- do not rely on this value for anything but (periodic) metals
  | Electronic free energy        :        -149.91790059 Ha       -4079.47363634 eV

  Derived energy quantities:
  | Kinetic energy                :         149.83026922 Ha        4077.08906539 eV
  | Electrostatic energy          :        -282.98734353 Ha       -7700.47741332 eV
  | Energy correction for multipole
  | error in Hartree potential    :          -0.00047100 Ha          -0.01281667 eV
  | Sum of eigenvalues per atom                           :       -1150.48366854 eV
  | Total energy (T->0) per atom                          :       -2039.73681817 eV  <-- do not rely on this value for anything but (periodic) metals
  | Electronic free energy per atom                       :       -2039.73681817 eV

  Self-consistency convergence accuracy:
  | Change of charge density      :  0.2168E+00
  | Change of sum of eigenvalues  : -0.5121E+02 eV
  | Change of total energy        :  0.2622E+01 eV

  End self-consistency iteration #     1       :  max(cpu_time)    wall_clock(cpu1)
  | Time for this iteration                    :        0.104 s           0.104 s
  | Charge density update                      :        0.030 s           0.029 s
  | Density mixing                             :        0.002 s           0.001 s
  | Hartree multipole update                   :        0.003 s           0.003 s
  | Hartree multipole summation                :        0.026 s           0.026 s
  | Integration                                :        0.043 s           0.042 s
  | Solution of K.-S. eqns.                    :        0.001 s           0.001 s
  | Total energy evaluation                    :        0.000 s           0.001 s
------------------------------------------------------------

------------------------------------------------------------
          Begin self-consistency iteration #    2

  Date     :  20190722, Time     :  144434.338
------------------------------------------------------------
  Evaluating new KS density.
  Integration grid: deviation in total charge (<rho> - N_e) =   1.776357E-14
  Pulay mixing of updated and previous charge densities.

  Evaluating partitioned Hartree potential by multipole expansion.
  | Analytical far-field extrapolation by fixed multipoles:
  | Hartree multipole sum: apparent total charge =   0.551838E+00
  Summing up the Hartree potential.
  Time summed over all CPUs for potential: real work        0.096 s, elapsed        0.097 s
  | RMS charge density error from multipole expansion :   0.496621E-03

  Integrating Hamiltonian matrix: batch-based integration.
  Time summed over all CPUs for integration: real work        0.166 s, elapsed        0.167 s

  Updating Kohn-Sham eigenvalues, eigenvectors, occupation numbers, and Fermi level.
  Solving generalized eigenproblem
  Updating Kohn-Sham eigenvalues and eigenfunctions.
  Solving real generalised eigenvalue problem by standard LAPACK (fast)
 BIG  0.999078014608571     
 FORCED TO: now -- previous           8           9           8           9
  Determining occupation numbers for Kohn-Sham eigenstates.
  | Chemical potential (Fermi level) in eV                 : -.1237E+02
  | Error in electron count due to remaining E_F inaccuracy: 0.0000E+00

  Highest occupied state (VBM) at    -21.30662631 eV
  | Occupation number:      2.00000000

  Lowest unoccupied state (CBM) at   -13.11103638 eV
  | Occupation number:      0.50000000

  Overall HOMO-LUMO gap:      8.19558993 eV.

  Total energy components:
  | Sum of eigenvalues            :         -87.46851520 Ha       -2380.13939866 eV
  | XC energy correction          :         -16.54641039 Ha        -450.25073526 eV
  | XC potential correction       :          21.26696342 Ha         578.70351872 eV
  | Free-atom electrostatic energy:         -71.52331217 Ha       -1946.24834828 eV
  | Hartree energy correction     :           4.44645701 Ha         120.99425136 eV
  | Entropy correction            :           0.00000000 Ha           0.00000000 eV
  | ---------------------------
  | Total energy                  :        -149.82481733 Ha       -4076.94071212 eV
  | Total energy, T -> 0          :        -149.82481733 Ha       -4076.94071212 eV  <-- do not rely on this value for anything but (periodic) metals
  | Electronic free energy        :        -149.82481733 Ha       -4076.94071212 eV

  Derived energy quantities:
  | Kinetic energy                :         149.13534247 Ha        4058.17914662 eV
  | Electrostatic energy          :        -282.41374942 Ha       -7684.86912349 eV
  | Energy correction for multipole
  | error in Hartree potential    :          -0.00036521 Ha          -0.00993781 eV
  | Sum of eigenvalues per atom                           :       -1190.06969933 eV
  | Total energy (T->0) per atom                          :       -2038.47035606 eV  <-- do not rely on this value for anything but (periodic) metals
  | Electronic free energy per atom                       :       -2038.47035606 eV

  Self-consistency convergence accuracy:
  | Change of charge density      :  0.1326E+00
  | Change of sum of eigenvalues  : -0.7917E+02 eV
  | Change of total energy        :  0.2533E+01 eV

  End self-consistency iteration #     2       :  max(cpu_time)    wall_clock(cpu1)
  | Time for this iteration                    :        0.105 s           0.104 s
  | Charge density update                      :        0.030 s           0.029 s
  | Density mixing                             :        0.002 s           0.002 s
  | Hartree multipole update                   :        0.004 s           0.004 s
  | Hartree multipole summation                :        0.026 s           0.025 s
  | Integration                                :        0.042 s           0.042 s
  | Solution of K.-S. eqns.                    :        0.001 s           0.001 s
  | Total energy evaluation                    :        0.000 s           0.001 s
------------------------------------------------------------

------------------------------------------------------------
          Begin self-consistency iteration #    3

  Date     :  20190722, Time     :  144434.443
------------------------------------------------------------
  Evaluating new KS density.
  Integration grid: deviation in total charge (<rho> - N_e) =   1.953993E-14
  Pulay mixing of updated and previous charge densities.

  Evaluating partitioned Hartree potential by multipole expansion.
  | Analytical far-field extrapolation by fixed multipoles:
  | Hartree multipole sum: apparent total charge =   0.102692E+01
  Summing up the Hartree potential.
  Time summed over all CPUs for potential: real work        0.095 s, elapsed        0.096 s
  | RMS charge density error from multipole expansion :   0.483060E-03

  Integrating Hamiltonian matrix: batch-based integration.
  Time summed over all CPUs for integration: real work        0.166 s, elapsed        0.168 s

  Updating Kohn-Sham eigenvalues, eigenvectors, occupation numbers, and Fermi level.
  Solving generalized eigenproblem
  Updating Kohn-Sham eigenvalues and eigenfunctions.
  Solving real generalised eigenvalue problem by standard LAPACK (fast)
 BIG  0.999783738805555     
 FORCED TO: now -- previous           9           8           8           9
  Determining occupation numbers for Kohn-Sham eigenstates.
  | Chemical potential (Fermi level) in eV                 : -.2547E+02
  | Error in electron count due to remaining E_F inaccuracy: 0.0000E+00

  Highest occupied state (VBM) at    -26.21842161 eV
  | Occupation number:      2.00000000

  Lowest unoccupied state (CBM) at   -18.09526477 eV
  | Occupation number:      0.50000000

  Overall HOMO-LUMO gap:      8.12315684 eV.

  Total energy components:
  | Sum of eigenvalues            :         -90.17925456 Ha       -2453.90236977 eV
  | XC energy correction          :         -16.41429656 Ha        -446.65573492 eV
  | XC potential correction       :          21.09384846 Ha         573.99282099 eV
  | Free-atom electrostatic energy:         -71.52331217 Ha       -1946.24834828 eV
  | Hartree energy correction     :           7.22924200 Ha         196.71768369 eV
  | Entropy correction            :           0.00000000 Ha           0.00000000 eV
  | ---------------------------
  | Total energy                  :        -149.79377283 Ha       -4076.09594829 eV
  | Total energy, T -> 0          :        -149.79377283 Ha       -4076.09594829 eV  <-- do not rely on this value for anything but (periodic) metals
  | Electronic free energy        :        -149.79377283 Ha       -4076.09594829 eV

  Derived energy quantities:
  | Kinetic energy                :         149.26304040 Ha        4061.65398384 eV
  | Electrostatic energy          :        -282.64251667 Ha       -7691.09419721 eV
  | Energy correction for multipole
  | error in Hartree potential    :          -0.00052068 Ha          -0.01416841 eV
  | Sum of eigenvalues per atom                           :       -1226.95118489 eV
  | Total energy (T->0) per atom                          :       -2038.04797414 eV  <-- do not rely on this value for anything but (periodic) metals
  | Electronic free energy per atom                       :       -2038.04797414 eV

  Self-consistency convergence accuracy:
  | Change of charge density      :  0.5887E-01
  | Change of sum of eigenvalues  : -0.7376E+02 eV
  | Change of total energy        :  0.8448E+00 eV

  End self-consistency iteration #     3       :  max(cpu_time)    wall_clock(cpu1)
  | Time for this iteration                    :        0.104 s           0.104 s
  | Charge density update                      :        0.030 s           0.030 s
  | Density mixing                             :        0.002 s           0.002 s
  | Hartree multipole update                   :        0.004 s           0.003 s
  | Hartree multipole summation                :        0.025 s           0.025 s
  | Integration                                :        0.042 s           0.042 s
  | Solution of K.-S. eqns.                    :        0.001 s           0.001 s
  | Total energy evaluation                    :        0.000 s           0.001 s
------------------------------------------------------------

------------------------------------------------------------
          Begin self-consistency iteration #    4

  Date     :  20190722, Time     :  144434.548
------------------------------------------------------------
  Evaluating new KS density.
  Integration grid: deviation in total charge (<rho> - N_e) =  -1.776357E-14
  Pulay mixing of updated and previous charge densities.

  Evaluating partitioned Hartree potential by multipole expansion.
  | Analytical far-field extrapolation by fixed multipoles:
  | Hartree multipole sum: apparent total charge =   0.993701E+00
  Summing up the Hartree potential.
  Time summed over all CPUs for potential: real work        0.095 s, elapsed        0.096 s
  | RMS charge density error from multipole expansion :   0.479611E-03

  Integrating Hamiltonian matrix: batch-based integration.
  Time summed over all CPUs for integration: real work        0.166 s, elapsed        0.167 s

  Updating Kohn-Sham eigenvalues, eigenvectors, occupation numbers, and Fermi level.
  Solving generalized eigenproblem
  Updating Kohn-Sham eigenvalues and eigenfunctions.
  Solving real generalised eigenvalue problem by standard LAPACK (fast)
 BIG  0.999988178665806     
 FORCED TO: now -- previous           9           8           9           8
  Determining occupation numbers for Kohn-Sham eigenstates.
  | Chemical potential (Fermi level) in eV                 : -.2509E+02
  | Error in electron count due to remaining E_F inaccuracy: 0.0000E+00

  Highest occupied state (VBM) at    -25.64595831 eV
  | Occupation number:      2.00000000

  Lowest unoccupied state (CBM) at   -17.50680342 eV
  | Occupation number:      0.50000000

  Overall HOMO-LUMO gap:      8.13915489 eV.

  Total energy components:
  | Sum of eigenvalues            :         -89.82037034 Ha       -2444.13663323 eV
  | XC energy correction          :         -16.44456068 Ha        -447.47926352 eV
  | XC potential correction       :          21.13348095 Ha         575.07127605 eV
  | Free-atom electrostatic energy:         -71.52331217 Ha       -1946.24834828 eV
  | Hartree energy correction     :           6.86166825 Ha         186.71549315 eV
  | Entropy correction            :           0.00000000 Ha           0.00000000 eV
  | ---------------------------
  | Total energy                  :        -149.79309398 Ha       -4076.07747583 eV
  | Total energy, T -> 0          :        -149.79309398 Ha       -4076.07747583 eV  <-- do not rely on this value for anything but (periodic) metals
  | Electronic free energy        :        -149.79309398 Ha       -4076.07747583 eV

  Derived energy quantities:
  | Kinetic energy                :         149.42346326 Ha        4066.01931205 eV
  | Electrostatic energy          :        -282.77199656 Ha       -7694.61752436 eV
  | Energy correction for multipole
  | error in Hartree potential    :          -0.00054634 Ha          -0.01486658 eV
  | Sum of eigenvalues per atom                           :       -1222.06831662 eV
  | Total energy (T->0) per atom                          :       -2038.03873791 eV  <-- do not rely on this value for anything but (periodic) metals
  | Electronic free energy per atom                       :       -2038.03873791 eV

  Self-consistency convergence accuracy:
  | Change of charge density      :  0.2410E-01
  | Change of sum of eigenvalues  :  0.9766E+01 eV
  | Change of total energy        :  0.1847E-01 eV

  End self-consistency iteration #     4       :  max(cpu_time)    wall_clock(cpu1)
  | Time for this iteration                    :        0.104 s           0.104 s
  | Charge density update                      :        0.030 s           0.030 s
  | Density mixing                             :        0.002 s           0.002 s
  | Hartree multipole update                   :        0.004 s           0.004 s
  | Hartree multipole summation                :        0.025 s           0.024 s
  | Integration                                :        0.042 s           0.042 s
  | Solution of K.-S. eqns.                    :        0.001 s           0.001 s
  | Total energy evaluation                    :        0.000 s           0.000 s
------------------------------------------------------------

------------------------------------------------------------
          Begin self-consistency iteration #    5

  Date     :  20190722, Time     :  144434.654
------------------------------------------------------------
  Evaluating new KS density.
  Integration grid: deviation in total charge (<rho> - N_e) =   3.552714E-15
  Pulay mixing of updated and previous charge densities.

  Evaluating partitioned Hartree potential by multipole expansion.
  | Analytical far-field extrapolation by fixed multipoles:
  | Hartree multipole sum: apparent total charge =   0.999203E+00
  Summing up the Hartree potential.
  Time summed over all CPUs for potential: real work        0.096 s, elapsed        0.097 s
  | RMS charge density error from multipole expansion :   0.491124E-03

  Integrating Hamiltonian matrix: batch-based integration.
  Time summed over all CPUs for integration: real work        0.166 s, elapsed        0.168 s

  Updating Kohn-Sham eigenvalues, eigenvectors, occupation numbers, and Fermi level.
  Solving generalized eigenproblem
  Updating Kohn-Sham eigenvalues and eigenfunctions.
  Solving real generalised eigenvalue problem by standard LAPACK (fast)
 BIG  0.999999605575566     
 FORCED TO: now -- previous           9           8           9           8
  Determining occupation numbers for Kohn-Sham eigenstates.
  | Chemical potential (Fermi level) in eV                 : -.2506E+02
  | Error in electron count due to remaining E_F inaccuracy: 0.0000E+00

  Highest occupied state (VBM) at    -25.60377979 eV
  | Occupation number:      2.00000000

  Lowest unoccupied state (CBM) at   -17.46513279 eV
  | Occupation number:      0.50000000

  Overall HOMO-LUMO gap:      8.13864701 eV.

  Total energy components:
  | Sum of eigenvalues            :         -89.79191308 Ha       -2443.36227191 eV
  | XC energy correction          :         -16.45029255 Ha        -447.63523584 eV
  | XC potential correction       :          21.14109677 Ha         575.27851286 eV
  | Free-atom electrostatic energy:         -71.52331217 Ha       -1946.24834828 eV
  | Hartree energy correction     :           6.83135195 Ha         185.89054464 eV
  | Entropy correction            :           0.00000000 Ha           0.00000000 eV
  | ---------------------------
  | Total energy                  :        -149.79306909 Ha       -4076.07679853 eV
  | Total energy, T -> 0          :        -149.79306909 Ha       -4076.07679853 eV  <-- do not rely on this value for anything but (periodic) metals
  | Electronic free energy        :        -149.79306909 Ha       -4076.07679853 eV

  Derived energy quantities:
  | Kinetic energy                :         149.44487185 Ha        4066.60186934 eV
  | Electrostatic energy          :        -282.78764838 Ha       -7695.04343203 eV
  | Energy correction for multipole
  | error in Hartree potential    :          -0.00053845 Ha          -0.01465204 eV
  | Sum of eigenvalues per atom                           :       -1221.68113596 eV
  | Total energy (T->0) per atom                          :       -2038.03839926 eV  <-- do not rely on this value for anything but (periodic) metals
  | Electronic free energy per atom                       :       -2038.03839926 eV

  Self-consistency convergence accuracy:
  | Change of charge density      :  0.6853E-02
  | Change of sum of eigenvalues  :  0.7744E+00 eV
  | Change of total energy        :  0.6773E-03 eV

  End self-consistency iteration #     5       :  max(cpu_time)    wall_clock(cpu1)
  | Time for this iteration                    :        0.105 s           0.104 s
  | Charge density update                      :        0.030 s           0.029 s
  | Density mixing                             :        0.002 s           0.002 s
  | Hartree multipole update                   :        0.005 s           0.004 s
  | Hartree multipole summation                :        0.025 s           0.025 s
  | Integration                                :        0.043 s           0.042 s
  | Solution of K.-S. eqns.                    :        0.001 s           0.001 s
  | Total energy evaluation                    :        0.000 s           0.000 s
------------------------------------------------------------

------------------------------------------------------------
          Begin self-consistency iteration #    6

  Date     :  20190722, Time     :  144434.759
------------------------------------------------------------
  Evaluating new KS density.
  Integration grid: deviation in total charge (<rho> - N_e) =  -3.019807E-14
  Pulay mixing of updated and previous charge densities.

  Evaluating partitioned Hartree potential by multipole expansion.
  | Analytical far-field extrapolation by fixed multipoles:
  | Hartree multipole sum: apparent total charge =   0.999592E+00
  Summing up the Hartree potential.
  Time summed over all CPUs for potential: real work        0.095 s, elapsed        0.096 s
  | RMS charge density error from multipole expansion :   0.491760E-03

  Integrating Hamiltonian matrix: batch-based integration.
  Time summed over all CPUs for integration: real work        0.167 s, elapsed        0.169 s

  Updating Kohn-Sham eigenvalues, eigenvectors, occupation numbers, and Fermi level.
  Solving generalized eigenproblem
  Updating Kohn-Sham eigenvalues and eigenfunctions.
  Solving real generalised eigenvalue problem by standard LAPACK (fast)
 BIG  0.999999999674407     
 FORCED TO: now -- previous           9           8           9           8
  Determining occupation numbers for Kohn-Sham eigenstates.
  | Chemical potential (Fermi level) in eV                 : -.2506E+02
  | Error in electron count due to remaining E_F inaccuracy: 0.0000E+00

  Highest occupied state (VBM) at    -25.60734904 eV
  | Occupation number:      2.00000000

  Lowest unoccupied state (CBM) at   -17.46728437 eV
  | Occupation number:      0.50000000

  Overall HOMO-LUMO gap:      8.14006467 eV.

  Total energy components:
  | Sum of eigenvalues            :         -89.79347162 Ha       -2443.40468195 eV
  | XC energy correction          :         -16.45012725 Ha        -447.63073770 eV
  | XC potential correction       :          21.14089131 Ha         575.27292222 eV
  | Free-atom electrostatic energy:         -71.52331217 Ha       -1946.24834828 eV
  | Hartree energy correction     :           6.83295073 Ha         185.93404957 eV
  | Entropy correction            :           0.00000000 Ha           0.00000000 eV
  | ---------------------------
  | Total energy                  :        -149.79306901 Ha       -4076.07679613 eV
  | Total energy, T -> 0          :        -149.79306901 Ha       -4076.07679613 eV  <-- do not rely on this value for anything but (periodic) metals
  | Electronic free energy        :        -149.79306901 Ha       -4076.07679613 eV

  Derived energy quantities:
  | Kinetic energy                :         149.44181692 Ha        4066.51874072 eV
  | Electrostatic energy          :        -282.78475868 Ha       -7694.96479916 eV
  | Energy correction for multipole
  | error in Hartree potential    :          -0.00053690 Ha          -0.01460990 eV
  | Sum of eigenvalues per atom                           :       -1221.70234097 eV
  | Total energy (T->0) per atom                          :       -2038.03839807 eV  <-- do not rely on this value for anything but (periodic) metals
  | Electronic free energy per atom                       :       -2038.03839807 eV

  Self-consistency convergence accuracy:
  | Change of charge density      :  0.6381E-03
  | Change of sum of eigenvalues  : -0.4241E-01 eV
  | Change of total energy        :  0.2396E-05 eV

  End self-consistency iteration #     6       :  max(cpu_time)    wall_clock(cpu1)
  | Time for this iteration                    :        0.105 s           0.104 s
  | Charge density update                      :        0.030 s           0.029 s
  | Density mixing                             :        0.002 s           0.002 s
  | Hartree multipole update                   :        0.004 s           0.004 s
  | Hartree multipole summation                :        0.025 s           0.025 s
  | Integration                                :        0.042 s           0.042 s
  | Solution of K.-S. eqns.                    :        0.001 s           0.001 s
  | Total energy evaluation                    :        0.000 s           0.001 s
------------------------------------------------------------

------------------------------------------------------------
          Begin self-consistency iteration #    7

  Date     :  20190722, Time     :  144434.865
------------------------------------------------------------
  Evaluating new KS density.
  Integration grid: deviation in total charge (<rho> - N_e) =   1.776357E-14
  Pulay mixing of updated and previous charge densities.

  Evaluating partitioned Hartree potential by multipole expansion.
  | Analytical far-field extrapolation by fixed multipoles:
  | Hartree multipole sum: apparent total charge =   0.100006E+01
  Summing up the Hartree potential.
  Time summed over all CPUs for potential: real work        0.096 s, elapsed        0.097 s
  | RMS charge density error from multipole expansion :   0.492692E-03

  Integrating Hamiltonian matrix: batch-based integration.
  Time summed over all CPUs for integration: real work        0.167 s, elapsed        0.169 s

  Updating Kohn-Sham eigenvalues, eigenvectors, occupation numbers, and Fermi level.
  Solving generalized eigenproblem
  Updating Kohn-Sham eigenvalues and eigenfunctions.
  Solving real generalised eigenvalue problem by standard LAPACK (fast)
 BIG  0.999999931546957     
 FORCED TO: now -- previous           9           8           9           8
  Determining occupation numbers for Kohn-Sham eigenstates.
  | Chemical potential (Fermi level) in eV                 : -.2505E+02
  | Error in electron count due to remaining E_F inaccuracy: 0.0000E+00

  Highest occupied state (VBM) at    -25.60190956 eV
  | Occupation number:      2.00000000

  Lowest unoccupied state (CBM) at   -17.46105870 eV
  | Occupation number:      0.50000000

  Overall HOMO-LUMO gap:      8.14085086 eV.

  Total energy components:
  | Sum of eigenvalues            :         -89.78917214 Ha       -2443.28768705 eV
  | XC energy correction          :         -16.45079901 Ha        -447.64901723 eV
  | XC potential correction       :          21.14178240 Ha         575.29716998 eV
  | Free-atom electrostatic energy:         -71.52331217 Ha       -1946.24834828 eV
  | Hartree energy correction     :           6.82843224 Ha         185.81109524 eV
  | Entropy correction            :           0.00000000 Ha           0.00000000 eV
  | ---------------------------
  | Total energy                  :        -149.79306868 Ha       -4076.07678733 eV
  | Total energy, T -> 0          :        -149.79306868 Ha       -4076.07678733 eV  <-- do not rely on this value for anything but (periodic) metals
  | Electronic free energy        :        -149.79306868 Ha       -4076.07678733 eV

  Derived energy quantities:
  | Kinetic energy                :         149.44486692 Ha        4066.60173541 eV
  | Electrostatic energy          :        -282.78713659 Ha       -7695.02950551 eV
  | Energy correction for multipole
  | error in Hartree potential    :          -0.00053647 Ha          -0.01459810 eV
  | Sum of eigenvalues per atom                           :       -1221.64384352 eV
  | Total energy (T->0) per atom                          :       -2038.03839367 eV  <-- do not rely on this value for anything but (periodic) metals
  | Electronic free energy per atom                       :       -2038.03839367 eV

  Self-consistency convergence accuracy:
  | Change of charge density      :  0.6390E-03
  | Change of sum of eigenvalues  :  0.1170E+00 eV
  | Change of total energy        :  0.8799E-05 eV

  End self-consistency iteration #     7       :  max(cpu_time)    wall_clock(cpu1)
  | Time for this iteration                    :        0.106 s           0.105 s
  | Charge density update                      :        0.030 s           0.030 s
  | Density mixing                             :        0.003 s           0.003 s
  | Hartree multipole update                   :        0.005 s           0.003 s
  | Hartree multipole summation                :        0.025 s           0.025 s
  | Integration                                :        0.043 s           0.042 s
  | Solution of K.-S. eqns.                    :        0.001 s           0.002 s
  | Total energy evaluation                    :        0.000 s           0.000 s
------------------------------------------------------------

------------------------------------------------------------
          Begin self-consistency iteration #    8

  Date     :  20190722, Time     :  144434.972
------------------------------------------------------------
  Evaluating new KS density.
  Integration grid: deviation in total charge (<rho> - N_e) =   4.263256E-14
  Pulay mixing of updated and previous charge densities.

  Evaluating partitioned Hartree potential by multipole expansion.
  | Analytical far-field extrapolation by fixed multipoles:
  | Hartree multipole sum: apparent total charge =   0.999986E+00
  Summing up the Hartree potential.
  Time summed over all CPUs for potential: real work        0.098 s, elapsed        0.099 s
  | RMS charge density error from multipole expansion :   0.492776E-03

  Integrating Hamiltonian matrix: batch-based integration.
  Time summed over all CPUs for integration: real work        0.170 s, elapsed        0.171 s

  Updating Kohn-Sham eigenvalues, eigenvectors, occupation numbers, and Fermi level.
  Solving generalized eigenproblem
  Updating Kohn-Sham eigenvalues and eigenfunctions.
  Solving real generalised eigenvalue problem by standard LAPACK (fast)
 BIG  0.999788038094509     
 FORCED TO: now -- previous           9           8           9           8
  Determining occupation numbers for Kohn-Sham eigenstates.
  | Chemical potential (Fermi level) in eV                 : -.2505E+02
  | Error in electron count due to remaining E_F inaccuracy: 0.0000E+00

  Highest occupied state (VBM) at    -25.59974983 eV
  | Occupation number:      2.00000000

  Lowest unoccupied state (CBM) at   -17.45888594 eV
  | Occupation number:      0.50000000

  Overall HOMO-LUMO gap:      8.14086389 eV.

  Total energy components:
  | Sum of eigenvalues            :         -89.78786486 Ha       -2443.25211420 eV
  | XC energy correction          :         -16.45092793 Ha        -447.65252516 eV
  | XC potential correction       :          21.14195270 Ha         575.30180399 eV
  | Free-atom electrostatic energy:         -71.52331217 Ha       -1946.24834828 eV
  | Hartree energy correction     :           6.82708359 Ha         185.77439649 eV
  | Entropy correction            :           0.00000000 Ha           0.00000000 eV
  | ---------------------------
  | Total energy                  :        -149.79306868 Ha       -4076.07678716 eV
  | Total energy, T -> 0          :        -149.79306868 Ha       -4076.07678716 eV  <-- do not rely on this value for anything but (periodic) metals
  | Electronic free energy        :        -149.79306868 Ha       -4076.07678716 eV

  Derived energy quantities:
  | Kinetic energy                :         149.44534019 Ha        4066.61461359 eV
  | Electrostatic energy          :        -282.78748094 Ha       -7695.03887559 eV
  | Energy correction for multipole
  | error in Hartree potential    :          -0.00053637 Ha          -0.01459528 eV
  | Sum of eigenvalues per atom                           :       -1221.62605710 eV
  | Total energy (T->0) per atom                          :       -2038.03839358 eV  <-- do not rely on this value for anything but (periodic) metals
  | Electronic free energy per atom                       :       -2038.03839358 eV

  Self-consistency convergence accuracy:
  | Change of charge density      :  0.6965E-04
  | Change of sum of eigenvalues  :  0.3557E-01 eV
  | Change of total energy        :  0.1747E-06 eV

  End self-consistency iteration #     8       :  max(cpu_time)    wall_clock(cpu1)
  | Time for this iteration                    :        0.119 s           0.119 s
  | Charge density update                      :        0.034 s           0.034 s
  | Density mixing                             :        0.006 s           0.006 s
  | Hartree multipole update                   :        0.004 s           0.004 s
  | Hartree multipole summation                :        0.026 s           0.026 s
  | Integration                                :        0.043 s           0.043 s
  | Solution of K.-S. eqns.                    :        0.005 s           0.004 s
  | Total energy evaluation                    :        0.001 s           0.001 s
------------------------------------------------------------

------------------------------------------------------------
          Begin self-consistency iteration #    9

  Date     :  20190722, Time     :  144435.093
------------------------------------------------------------
  Evaluating new KS density.
  Integration grid: deviation in total charge (<rho> - N_e) =  -1.065814E-14
  Pulay mixing of updated and previous charge densities.

  Evaluating partitioned Hartree potential by multipole expansion.
  | Analytical far-field extrapolation by fixed multipoles:
  | Hartree multipole sum: apparent total charge =   0.999995E+00
  Summing up the Hartree potential.
  Time summed over all CPUs for potential: real work        0.096 s, elapsed        0.097 s
  | RMS charge density error from multipole expansion :   0.492778E-03

  Integrating Hamiltonian matrix: batch-based integration.
  Time summed over all CPUs for integration: real work        0.166 s, elapsed        0.168 s

  Updating Kohn-Sham eigenvalues, eigenvectors, occupation numbers, and Fermi level.
  Solving generalized eigenproblem
  Updating Kohn-Sham eigenvalues and eigenfunctions.
  Solving real generalised eigenvalue problem by standard LAPACK (fast)
 BIG  0.999773878652431     
 FORCED TO: now -- previous           9           8           9           8
  Determining occupation numbers for Kohn-Sham eigenstates.
  | Chemical potential (Fermi level) in eV                 : -.2505E+02
  | Error in electron count due to remaining E_F inaccuracy: 0.0000E+00

  Highest occupied state (VBM) at    -25.59986015 eV
  | Occupation number:      2.00000000

  Lowest unoccupied state (CBM) at   -17.45899888 eV
  | Occupation number:      0.50000000

  Overall HOMO-LUMO gap:      8.14086127 eV.

  Total energy components:
  | Sum of eigenvalues            :         -89.78793229 Ha       -2443.25394887 eV
  | XC energy correction          :         -16.45092327 Ha        -447.65239850 eV
  | XC potential correction       :          21.14194662 Ha         575.30163858 eV
  | Free-atom electrostatic energy:         -71.52331217 Ha       -1946.24834828 eV
  | Hartree energy correction     :           6.82715243 Ha         185.77626991 eV
  | Entropy correction            :           0.00000000 Ha           0.00000000 eV
  | ---------------------------
  | Total energy                  :        -149.79306868 Ha       -4076.07678716 eV
  | Total energy, T -> 0          :        -149.79306868 Ha       -4076.07678716 eV  <-- do not rely on this value for anything but (periodic) metals
  | Electronic free energy        :        -149.79306868 Ha       -4076.07678716 eV

  Derived energy quantities:
  | Kinetic energy                :         149.44532004 Ha        4066.61406539 eV
  | Electrostatic energy          :        -282.78746545 Ha       -7695.03845405 eV
  | Energy correction for multipole
  | error in Hartree potential    :          -0.00053636 Ha          -0.01459516 eV
  | Sum of eigenvalues per atom                           :       -1221.62697443 eV
  | Total energy (T->0) per atom                          :       -2038.03839358 eV  <-- do not rely on this value for anything but (periodic) metals
  | Electronic free energy per atom                       :       -2038.03839358 eV

  Self-consistency convergence accuracy:
  | Change of charge density      :  0.1968E-05
  | Change of sum of eigenvalues  : -0.1835E-02 eV
  | Change of total energy        :  0.8809E-09 eV

  Electronic self-consistency reached - switching on the force computation.

  End self-consistency iteration #     9       :  max(cpu_time)    wall_clock(cpu1)
  | Time for this iteration                    :        0.106 s           0.105 s
  | Charge density & force component update    :        0.030 s           0.029 s
  | Density mixing                             :        0.003 s           0.003 s
  | Hartree multipole update                   :        0.004 s           0.004 s
  | Hartree multipole summation                :        0.025 s           0.025 s
  | Integration                                :        0.043 s           0.042 s
  | Solution of K.-S. eqns.                    :        0.001 s           0.001 s
  | Total energy evaluation                    :        0.000 s           0.001 s
------------------------------------------------------------

------------------------------------------------------------
          Begin self-consistency iteration #   10

  Date     :  20190722, Time     :  144435.199
------------------------------------------------------------
  Evaluating new KS density.
  Integration grid: deviation in total charge (<rho> - N_e) =   4.618528E-14
  Pulay mixing of updated and previous charge densities.

  Evaluating partitioned Hartree potential by multipole expansion.
  | Analytical far-field extrapolation by fixed multipoles:
  | Hartree multipole sum: apparent total charge =   0.999999E+00
  Summing up the Hartree potential.
  Time summed over all CPUs for potential: real work        0.254 s, elapsed        0.258 s
  | RMS charge density error from multipole expansion :   0.492779E-03

  Integrating Hamiltonian matrix: batch-based integration.
  Time summed over all CPUs for integration: real work        0.166 s, elapsed        0.168 s

  Updating Kohn-Sham eigenvalues, eigenvectors, occupation numbers, and Fermi level.
  Solving generalized eigenproblem
  Updating Kohn-Sham eigenvalues and eigenfunctions.
  Solving real generalised eigenvalue problem by standard LAPACK (fast)
 BIG  0.937652267145417     
 FORCED TO: now -- previous           9           8           9           8
  Determining occupation numbers for Kohn-Sham eigenstates.
  | Chemical potential (Fermi level) in eV                 : -.2505E+02
  | Error in electron count due to remaining E_F inaccuracy: 0.0000E+00

  Highest occupied state (VBM) at    -25.59985532 eV
  | Occupation number:      2.00000000

  Lowest unoccupied state (CBM) at   -17.45899145 eV
  | Occupation number:      0.50000000

  Overall HOMO-LUMO gap:      8.14086387 eV.

  Total energy components:
  | Sum of eigenvalues            :         -89.78792362 Ha       -2443.25371303 eV
  | XC energy correction          :         -16.45092629 Ha        -447.65248075 eV
  | XC potential correction       :          21.14195063 Ha         575.30174762 eV
  | Free-atom electrostatic energy:         -71.52331217 Ha       -1946.24834828 eV
  | Hartree energy correction     :           6.82714278 Ha         185.77600728 eV
  | Entropy correction            :           0.00000000 Ha           0.00000000 eV
  | ---------------------------
  | Total energy                  :        -149.79306868 Ha       -4076.07678716 eV
  | Total energy, T -> 0          :        -149.79306868 Ha       -4076.07678716 eV  <-- do not rely on this value for anything but (periodic) metals
  | Electronic free energy        :        -149.79306868 Ha       -4076.07678716 eV

  Derived energy quantities:
  | Kinetic energy                :         149.44534613 Ha        4066.61477532 eV
  | Electrostatic energy          :        -282.78748851 Ha       -7695.03908173 eV
  | Energy correction for multipole
  | error in Hartree potential    :          -0.00053636 Ha          -0.01459520 eV
  | Sum of eigenvalues per atom                           :       -1221.62685652 eV
  | Total energy (T->0) per atom                          :       -2038.03839358 eV  <-- do not rely on this value for anything but (periodic) metals
  | Electronic free energy per atom                       :       -2038.03839358 eV

  atomic forces [eV/Ang]:
  -----------------------
  atom #    1
   Hellmann-Feynman              : -0.380615E-12  0.271854E-11 -0.153646E+02
   Ionic forces                  :  0.000000E+00  0.000000E+00  0.000000E+00
   Multipole                     :  0.173571E-12 -0.753626E-14 -0.595171E-01
   Pulay + GGA                   :  0.000000E+00  0.000000E+00  0.000000E+00
   ----------------------------------------------------------------
   Total forces(   1)            : -0.207044E-12  0.271100E-11 -0.154242E+02
  atom #    2
   Hellmann-Feynman              : -0.132728E-13  0.877924E-12  0.153646E+02
   Ionic forces                  :  0.000000E+00  0.000000E+00  0.000000E+00
   Multipole                     :  0.305242E-13  0.497363E-13  0.595171E-01
   Pulay + GGA                   :  0.000000E+00  0.000000E+00  0.000000E+00
   ----------------------------------------------------------------
   Total forces(   2)            :  0.172514E-13  0.927660E-12  0.154242E+02


  Self-consistency convergence accuracy:
  | Change of charge density      :  0.2888E-05
  | Change of sum of eigenvalues  :  0.2358E-03 eV
  | Change of total energy        :  0.6682E-09 eV
  | Change of forces              :  0.1542E+02 eV/A

  End self-consistency iteration #    10       :  max(cpu_time)    wall_clock(cpu1)
  | Time for this iteration                    :        0.147 s           0.146 s
  | Charge density & force component update    :        0.030 s           0.030 s
  | Density mixing                             :        0.003 s           0.003 s
  | Hartree multipole update                   :        0.004 s           0.003 s
  | Hartree multipole summation                :        0.066 s           0.065 s
  | Integration                                :        0.043 s           0.043 s
  | Solution of K.-S. eqns.                    :        0.001 s           0.001 s
  | Total energy evaluation                    :        0.001 s           0.001 s
------------------------------------------------------------

------------------------------------------------------------
          Begin self-consistency iteration #   11

  Date     :  20190722, Time     :  144435.347
------------------------------------------------------------
  Evaluating new KS density and force components.
  Integration grid: deviation in total charge (<rho> - N_e) =   2.842171E-14
  Pulay mixing of updated and previous charge densities.

  Evaluating partitioned Hartree potential by multipole expansion.
  | Analytical far-field extrapolation by fixed multipoles:
  | Hartree multipole sum: apparent total charge =   0.999999E+00
  Summing up the Hartree potential.
  Time summed over all CPUs for potential: real work        0.255 s, elapsed        0.259 s
  | RMS charge density error from multipole expansion :   0.492779E-03

  Integrating Hamiltonian matrix: batch-based integration.
  Time summed over all CPUs for integration: real work        0.166 s, elapsed        0.167 s

  Updating Kohn-Sham eigenvalues, eigenvectors, occupation numbers, and Fermi level.
  Solving generalized eigenproblem
  Updating Kohn-Sham eigenvalues and eigenfunctions.
  Solving real generalised eigenvalue problem by standard LAPACK (fast)
 BIG  0.734249789590981     
 FORCED TO: now -- previous           9           8           9           8
  Determining occupation numbers for Kohn-Sham eigenstates.
  | Chemical potential (Fermi level) in eV                 : -.2505E+02
  | Error in electron count due to remaining E_F inaccuracy: 0.0000E+00

  Highest occupied state (VBM) at    -25.59985273 eV
  | Occupation number:      2.00000000

  Lowest unoccupied state (CBM) at   -17.45898878 eV
  | Occupation number:      0.50000000

  Overall HOMO-LUMO gap:      8.14086395 eV.

  Total energy components:
  | Sum of eigenvalues            :         -89.78792197 Ha       -2443.25366818 eV
  | XC energy correction          :         -16.45092647 Ha        -447.65248559 eV
  | XC potential correction       :          21.14195086 Ha         575.30175405 eV
  | Free-atom electrostatic energy:         -71.52331217 Ha       -1946.24834828 eV
  | Hartree energy correction     :           6.82714108 Ha         185.77596084 eV
  | Entropy correction            :           0.00000000 Ha           0.00000000 eV
  | ---------------------------
  | Total energy                  :        -149.79306868 Ha       -4076.07678716 eV
  | Total energy, T -> 0          :        -149.79306868 Ha       -4076.07678716 eV  <-- do not rely on this value for anything but (periodic) metals
  | Electronic free energy        :        -149.79306868 Ha       -4076.07678716 eV

  Derived energy quantities:
  | Kinetic energy                :         149.44534685 Ha        4066.61479475 eV
  | Electrostatic energy          :        -282.78748905 Ha       -7695.03909631 eV
  | Energy correction for multipole
  | error in Hartree potential    :          -0.00053636 Ha          -0.01459519 eV
  | Sum of eigenvalues per atom                           :       -1221.62683409 eV
  | Total energy (T->0) per atom                          :       -2038.03839358 eV  <-- do not rely on this value for anything but (periodic) metals
  | Electronic free energy per atom                       :       -2038.03839358 eV

  atomic forces [eV/Ang]:
  -----------------------
  atom #    1
   Hellmann-Feynman              : -0.983049E-12  0.406383E-11 -0.153646E+02
   Ionic forces                  :  0.000000E+00  0.000000E+00  0.000000E+00
   Multipole                     : -0.233433E-13  0.101050E-13 -0.595171E-01
   Pulay + GGA                   :  0.970529E-13 -0.128595E-11  0.156935E+02
   ----------------------------------------------------------------
   Total forces(   1)            : -0.909339E-12  0.278799E-11  0.269313E+00
  atom #    2
   Hellmann-Feynman              : -0.179753E-11  0.704214E-12  0.153646E+02
   Ionic forces                  :  0.000000E+00  0.000000E+00  0.000000E+00
   Multipole                     :  0.571039E-13 -0.998503E-13  0.595171E-01
   Pulay + GGA                   :  0.456720E-12  0.145579E-12 -0.156935E+02
   ----------------------------------------------------------------
   Total forces(   2)            : -0.128371E-11  0.749943E-12 -0.269313E+00


  Self-consistency convergence accuracy:
  | Change of charge density      :  0.1385E-06
  | Change of sum of eigenvalues  :  0.4486E-04 eV
  | Change of total energy        : -0.4022E-10 eV
  | Change of forces              :  0.6843E-06 eV/A

  Writing Kohn-Sham eigenvalues.

  State    Occupation    Eigenvalue [Ha]    Eigenvalue [eV]
      1       2.00000         -19.412708         -528.24667
      2       2.00000         -19.412496         -528.24091
      3       2.00000          -1.741319          -47.38369
      4       2.00000          -1.152615          -31.36426
      5       2.00000          -0.956621          -26.03098
      6       2.00000          -0.956621          -26.03098
      7       2.00000          -0.940777          -25.59985
      8       0.50000          -0.641606          -17.45899
      9       0.50000          -0.641606          -17.45899
     10       0.00000          -0.184003           -5.00699
     11       0.00000          -0.160781           -4.37507
     12       0.00000          -0.115128           -3.13279
     13       0.00000          -0.115128           -3.13279
     14       0.00000          -0.063117           -1.71749

  Highest occupied state (VBM) at    -25.59985273 eV
  | Occupation number:      2.00000000

  Lowest unoccupied state (CBM) at   -17.45898878 eV
  | Occupation number:      0.50000000

  Overall HOMO-LUMO gap:      8.14086395 eV.

  Self-consistency cycle converged.

  End self-consistency iteration #    11       :  max(cpu_time)    wall_clock(cpu1)
  | Time for this iteration                    :        0.219 s           0.219 s
  | Charge density & force component update    :        0.102 s           0.102 s
  | Density mixing                             :        0.003 s           0.003 s
  | Hartree multipole update                   :        0.004 s           0.004 s
  | Hartree multipole summation                :        0.066 s           0.065 s
  | Integration                                :        0.042 s           0.042 s
  | Solution of K.-S. eqns.                    :        0.001 s           0.001 s
  | Total energy evaluation                    :        0.001 s           0.001 s
------------------------------------------------------------
  Writing cluster restart information to file restart
  ------------------------------------------------------------
   Computing monopole / dipole moments for complete molecule:
  | Total electronic charge [e]         :          0.150000000263065E+02
  | Total ionic charge [e]              :          0.160000000000000E+02
  | Total charge [e]                    :          0.999999973693459E+00
 * Warning: The system has a total charge of      0.99999997 .
 * The dipole moment depends on the choice of the origin.
  | Total dipole moment [eAng]          :         -0.141001133435736E-14        -0.104282088270180E-14         0.604999984084012E+00
  | Absolute dipole moment              :          0.604999984084012E+00 eAng              /                   0.290548588116945E+01 Debye  .
  Removing unitary transformations (pure translations, rotations) from forces on atoms.
  Atomic forces before filtering:
  | Net force on center of mass :  -0.219305E-11  0.353793E-11  0.982301E-10 eV/A
  | Net torque on center of mass:   0.114669E-11 -0.210636E-12  0.000000E+00 eV
  Atomic forces after filtering:
  | Net force on center of mass :  -0.811297E-27  0.649038E-27  0.000000E+00 eV/A
  | Net torque on center of mass:   0.365175E-27  0.912938E-28  0.000000E+00 eV

  Energy and forces in a compact form:
  | Total energy uncorrected      :         -0.407607678715834E+04 eV
  | Total energy corrected        :         -0.407607678715834E+04 eV  <-- do not rely on this value for anything but (periodic) metals
  | Electronic free energy        :         -0.407607678715834E+04 eV
  Total atomic forces (unitary forces cleaned) [eV/Ang]:
  |   1         -0.486778273969592E-27          0.649037698626122E-27          0.269312640225368E+00
  |   2         -0.324518849313061E-27          0.000000000000000E+00         -0.269312640225368E+00

  ------------------------------------ 
  Start decomposition of the XC Energy 
  ------------------------------------ 
  Hartree-Fock part   :          0.000000000 Ha              0.000000000 eV
  ------------------------------------ 
  X Energy            :        -15.947662524 Ha           -433.957976813 eV
  C Energy GGA        :         -0.503263947 Ha            -13.694508779 eV
  Total XC Energy     :        -16.450926471 Ha           -447.652485592 eV
  LDA X and C from self-consistent density 
  X Energy LDA        :        -14.463099491 Ha           -393.560961311 eV
  C Energy LDA        :         -1.061536273 Ha            -28.885871687 eV
  ------------------------------------ 
  End decomposition of the XC Energy 
  ------------------------------------ 

------------------------------------------------------------------------------
  Final output of selected total energy values:

  The following output summarizes some interesting total energy values
  at the end of a run (AFTER all relaxation, molecular dynamics, etc.).

  | Total energy of the DFT / Hartree-Fock s.c.f. calculation      :          -4076.076787158 eV
  | Final zero-broadening corrected energy (caution - metals only) :          -4076.076787158 eV
  | For reference only, the value of 1 Hartree used in FHI-aims is :             27.211384500 eV

  Before relying on these values, please be sure to understand exactly which
  total energy value is referred to by a given number. Different objects may
  all carry the same name 'total energy'. Definitions:

  Total energy of the DFT / Hartree-Fock s.c.f. calculation:
  | Note that this energy does not include ANY quantities calculated after the
  | s.c.f. cycle, in particular not ANY RPA, MP2, etc. many-body perturbation terms.

  Final zero-broadening corrected energy:
  | For metallic systems only, a broadening of the occupation numbers at the Fermi
  | level can be extrapolated back to zero broadening by an electron-gas inspired
  | formula. For all systems that are not real metals, this value can be
  | meaningless and should be avoided.

------------------------------------------------------------------------------
  Methods described in the following list of references were used in this FHI-aims run.
  If you publish the results, please make sure to cite these reference if they apply.
  FHI-aims is an academic code, and for our developers (often, Ph.D. students
  and postdocs), scientific credit in the community is essential.
  Thank you for helping us!

  For any use of FHI-aims, please cite:

    Volker Blum, Ralf Gehrke, Felix Hanke, Paula Havu, Ville Havu,
    Xinguo Ren, Karsten Reuter, and Matthias Scheffler
    'Ab initio molecular simulations with numeric atom-centered orbitals'
    Computer Physics Communications 180, 2175-2196 (2009)
    http://dx.doi.org/10.1016/j.cpc.2009.06.022


  For the real-space grid partitioning and parallelization used in this calculation, please cite:

    Ville Havu, Volker Blum, Paula Havu, and Matthias Scheffler,
    'Efficient O(N) integration for all-electron electronic structure calculation'
    'using numerically tabulated basis functions'
    Journal of Computational Physics 228, 8367-8379 (2009).
    http://dx.doi.org/10.1016/j.jcp.2009.08.008

  Of course, there are many other important community references, e.g., those cited in the
  above references. Our list is limited to references that describe implementations in the
  FHI-aims code. The reason is purely practical (length of this list) - please credit others as well.

------------------------------------------------------------
          Leaving FHI-aims.
          Date     :  20190722, Time     :  144435.603

          Computational steps:
          | Number of self-consistency cycles          :           11

          Detailed time accounting                     :  max(cpu_time)    wall_clock(cpu1)
          | Total time                                 :        1.775 s           1.787 s
          | Preparation time                           :        0.141 s           0.150 s
          | Grid partitioning                          :        0.021 s           0.022 s
          | Preloading free-atom quantities on grid    :        0.018 s           0.018 s
          | Free-atom superposition energy             :        0.008 s           0.008 s
          | Total time for integrations                :        0.569 s           0.565 s
          | Total time for solution of K.-S. equations :        0.023 s           0.023 s
          | Total time for density & force components  :        0.438 s           0.433 s
          | Total time for mixing                      :        0.030 s           0.029 s
          | Total time for Hartree multipole update    :        0.049 s           0.044 s
          | Total time for Hartree multipole sum       :        0.403 s           0.399 s
          | Total time for total energy evaluation     :        0.005 s           0.010 s

          Have a nice day.
------------------------------------------------------------
