  MPI-parallelism will be employed.
------------------------------------------------------------
          Invoking FHI-aims ...
          Version 160328_3
          Compiled on 2019/06/10 at 14:55:49 on host taito-login3.csc.fi.

          When using FHI-aims, please cite the following reference:

          Volker Blum, Ralf Gehrke, Felix Hanke, Paula Havu,
          Ville Havu, Xinguo Ren, Karsten Reuter, and Matthias Scheffler,
          'Ab Initio Molecular Simulations with Numeric Atom-Centered Orbitals',
          Computer Physics Communications 180, 2175-2196 (2009)

          For any questions about FHI-aims, please visit the aimsclub website
          with its forums and wiki. Contributions to both the forums and the
          wiki are warmly encouraged - they are for you, and everyone is welcome there.

------------------------------------------------------------

  Date     :  20190722, Time     :  144537.129
  Time zero on CPU 1             :   0.639890000000000E-01  s.
  Internal wall clock time zero  :           333038737.129  s.

  Using        4 parallel tasks.
  Task        0 on host c798 reporting.
  Task        1 on host c798 reporting.
  Task        2 on host c798 reporting.
  Task        3 on host c798 reporting.

  Performing system and environment tests:
  | Environment variable OMP_NUM_THREADS correctly set to 1.
  | Maximum stacksize for task 0: unlimited
  | Maximum stacksize for task 1: unlimited
  | Maximum stacksize for task 2: unlimited
  | Maximum stacksize for task 3: unlimited
  | Current stacksize for task 0: 1024 [Mb]
  | Current stacksize for task 1: 1024 [Mb]
  | Current stacksize for task 2: 1024 [Mb]
  | Current stacksize for task 3: 1024 [Mb]
  | Checking for scalapack...
  | No scalapack compiled in.

  Obtaining array dimensions for all initial allocations:
  
  -----------------------------------------------------------------------
  Parsing control.in (first pass over file, find array dimensions only).
  The contents of control.in will be repeated verbatim below
  unless switched off by setting 'verbatim_writeout .false.' .
  in the first line of control.in .
  -----------------------------------------------------------------------
  
    #  Physical model settings
    #
  
    xc                            pbe
    charge                        1.0
    relativistic                  none
  #  default_initial_moment        0.0
    spin                          none
  #  vdw_correction_hirshfeld
  
    #  SCF convergence settings
    #
  
    sc_accuracy_rho               1E-4
    sc_accuracy_eev               1E-2
    sc_accuracy_etot              1E-8
    sc_iter_limit                 100
  
    #  Occupation settings
    #
  
    restart                       restart
  #  force_occupation_projector      5 1 1.0 5 5 # ion 4
  
    #  Relaxation
    #
  
    ############relax_geometry                bfgs    1.e-4
  
  
  ################################################################################
  #
  #  FHI-aims code project
  #  VB, Fritz-Haber Institut, 2007
  #
  #  Suggested "safe" defaults for O atom (to be pasted into control.in file)
  #
  ################################################################################
    species        O
  #     global species definitions
      nucleus             8
      mass                15.9994
  #
      l_hartree           8
  #
      cut_pot             4.0  2.0  1.0
      basis_dep_cutoff    0.d0
  #
      radial_base         36 7.0
      radial_multiplier   2
       angular_grids specified
        division   0.4087  110
        division   0.5181  194
        division   0.6184  302
        division   0.7315  434
        division   0.7934  590
  #      division   0.9656  770
  #      division   1.4041  974
  #      outer_grid 974
        outer_grid 590
  ################################################################################
  #
  #  Definition of "minimal" basis
  #
  ################################################################################
  #     valence basis states
      valence      2  s   2.
      valence      2  p   4.
  #     ion occupancy
      ion_occ      2  s   1.
      ion_occ      2  p   3.
  ################################################################################
  #
  #  Suggested additional basis functions. For production calculations,
  #  uncomment them one after another (the most important basis functions are
  #  listed first).
  #
  #  Constructed for dimers: 1.0 A, 1.208 A, 1.5 A, 2.0 A, 3.0 A
  #
  ################################################################################
  #  "First tier" - improvements: -699.05 meV to -159.38 meV
       hydro 2 p 1.8
       hydro 3 d 7.6
       hydro 3 s 6.4
  #  "Second tier" - improvements: -49.91 meV to -5.39 meV
       hydro 4 f 11.6
       hydro 3 p 6.2
       hydro 3 d 5.6
       hydro 5 g 17.6
       hydro 1 s 0.75
  #  "Third tier" - improvements: -2.83 meV to -0.50 meV
  #     ionic 2 p auto
  #     hydro 4 f 10.8
  #     hydro 4 d 4.7
  #     hydro 2 s 6.8
  #  "Fourth tier" - improvements: -0.40 meV to -0.12 meV
  #     hydro 3 p 5
  #     hydro 3 s 3.3
  #     hydro 5 g 15.6
  #     hydro 4 f 17.6
  #     hydro 4 d 14
  # Further basis functions - -0.08 meV and below
  #     hydro 3 s 2.1
  #     hydro 4 d 11.6
  #     hydro 3 p 16
  #     hydro 2 s 17.2
  compute_forces .true.
  final_forces_cleaned .true.
  output dipole
  
  -----------------------------------------------------------------------
  Completed first pass over input file control.in .
  -----------------------------------------------------------------------
  
  
  -----------------------------------------------------------------------
  Parsing geometry.in (first pass over file, find array dimensions only).
  The contents of geometry.in will be repeated verbatim below
  unless switched off by setting 'verbatim_writeout .false.' .
  in the first line of geometry.in .
  -----------------------------------------------------------------------
  
  #
  # temporary structure-file for finite-difference calculation of forces
  # displacement   0.0025 of \# atom     1 direction     2
  #
  atom   -0.00000000   -0.00000000    0.04235921   O
  atom    0.00000000    0.00000000    1.16764079   O
  
  -----------------------------------------------------------------------
  Completed first pass over input file geometry.in .
  -----------------------------------------------------------------------
  

  Basic array size parameters:
  | Number of species                 :        1
  | Number of atoms                   :        2
  | Max. basis fn. angular momentum   :        4
  | Max. atomic/ionic basis occupied n:        2
  | Max. number of basis fn. types    :        2
  | Max. radial fns per species/type  :        8
  | Max. logarithmic grid size        :     1301
  | Max. radial integration grid size :       73
  | Max. angular integration grid size:      590
  | Max. angular grid division number :        8
  | Radial grid for Hartree potential :     1301
  | Number of spin channels           :        1

------------------------------------------------------------
          Reading file control.in.
------------------------------------------------------------
  XC: Using PBE gradient-corrected functionals.
  Charged system requested: Charge =   0.100000E+01.
  Non-relativistic treatment of kinetic energy.
  Spin treatment: No spin polarisation.
  Convergence accuracy of self-consistent charge density:  0.1000E-03
  Convergence accuracy of sum of eigenvalues:  0.1000E-01
  Convergence accuracy of total energy:  0.1000E-07
  Maximum number of s.-c. iterations  :   100
  Restart file specified as : restart
  | Reading information from existing file.
 
  Reading configuration options for species O                   .
  | Found nuclear charge :   8.0000
  | Found atomic mass :    15.9994000000000      amu
  | Found l_max for Hartree potential  :   8
  | Found cutoff potl. onset [A], width [A], scale factor :    4.00000    2.00000    1.00000
  | Threshold for basis-dependent cutoff potential is   0.000000E+00
  | Found data for basic radial integration grid :    36 points, outermost radius =    7.000 A
  | Found multiplier for basic radial grid :   2
  | Found angular grid specification: user-specified.
  | Specified grid contains     6 separate shells.
  | Check grid settings after all constraints further below.
  | Found free-atom valence shell :  2 s   2.000
  | Found free-atom valence shell :  2 p   4.000
  | No ionic wave fns used. Skipping ion_occ.
  | No ionic wave fns used. Skipping ion_occ.
  | Found hydrogenic basis function :  2 p   1.800
  | Found hydrogenic basis function :  3 d   7.600
  | Found hydrogenic basis function :  3 s   6.400
  | Found hydrogenic basis function :  4 f  11.600
  | Found hydrogenic basis function :  3 p   6.200
  | Found hydrogenic basis function :  3 d   5.600
  | Found hydrogenic basis function :  5 g  17.600
  | Found hydrogenic basis function :  1 s   0.750
  Species O                   : Missing cutoff potential type.
  Defaulting to exp(1/x)/(1-x)^2 type cutoff potential.
  Species O : No 'logarithmic' tag. Using default grid for free atom:
  | Default logarithmic grid data [bohr] : 0.1000E-03 0.1000E+03 0.1012E+01
  Species O : On-site basis accuracy parameter (for Gram-Schmidt orthonormalisation) not specified.
  Using default value basis_acc =  0.1000000E-03.
  Species O                   : Using default innermost maximum threshold i_radial=  2 for radial functions.
  Species O                   : Default cutoff onset for free atom density etc. : 0.40000000E+01 AA.
  Species O                   : Basic radial grid will be enhanced according to radial_multiplier =   2, to contain    73 grid points.
  Forces will be computed.
  Cleaning forces before final output.
  Dipole moment will be written out.
 
  Finished reading input file 'control.in'. Consistency checks are next.
 
  Target number of points in a grid batch is not set. Defaulting to  100
  Method for grid partitioning is not set. Defaulting to parallel hash+maxmin partitioning.
  Batch size limit is not set. Defaulting to    200
  By default, will store active basis functions for each batch.
  If in need of memory, prune_basis_once .false. can be used to disable this option.
  communication_type for Hartree potential was not specified.
  Defaulting to calc_hartree .
  Defaulting to Pulay charge density mixer.
  Pulay mixer: Number of relevant iterations not set.
  Defaulting to    8 iterations.
  Pulay mixer: Number of initial linear mixing iterations not set.
  Defaulting to    0 iterations.
  Work space size for distributed Hartree potential not set.
  Defaulting to   0.200000E+03 MB.
  Mixing parameter for charge density mixing has not been set.
  Using default: charge_mix_param =     0.2000.
  Algorithm-dependent basis array size parameters:
  | n_max_pulay                         :        8
  Geometry relaxation not requested: no relaxation will be performed.
  Force calculation: scf convergence accuracy of forces not set.
  Defaulting to  0.1000E-03 eV/A.
  Handling of forces: Unphysical translation and rotation will be removed from forces.
  No accuracy limit for integral partition fn. given. Defaulting to  0.1000E-14.
  No threshold value for u(r) in integrations given. Defaulting to  0.1000E-05.
  No occupation type (smearing scheme) given. Defaulting to Gaussian broadening, width =  0.1000E-01 eV.
  No accuracy for occupation numbers given. Defaulting to  0.1000E-07.
  No threshold value for occupation numbers given. Defaulting to  0.0000E+00.
  No accuracy for fermi level given. Defaulting to  0.1000E-19.
  Maximum # of iterations to find E_F not set. Defaulting to  200.
  Preferred method for the eigenvalue solver ('KS_method') not specified in 'control.in'.
  Calling blacs routine to test compilation state
  The best choice would be 'elpa', but your version of FHI-aims is compiled without scalapack support.
  Defaulting to 'lapack_fast' instead (serial solution, time will not improve with more CPUs).
  Will not use alltoall communication since running on < 1024 CPUs.
  Threshold for basis singularities not set.
  Default threshold for basis singularities:  0.1000E-04
  partition_type (choice of integration weights) for integrals was not specified.
  | Using a version of the partition function of Stratmann and coworkers ('stratmann_smoother').
  | At each grid point, the set of atoms used to build the partition table is smoothly restricted to
  | only those atoms whose free-atom density would be non-zero at that grid point.
  Partitioning for Hartree potential was not defined. Using partition_type for integrals.
  | Adjusted default value of keyword multip_moments_threshold to:       0.10000000E-11
  | This value may affect high angular momentum components of the Hartree potential in periodic systems.
  No q(lm)/r^(l+1) cutoff set for long-range Hartree potential.
  | Using default value of  0.100000E-09 .
  | Verify using the multipole_threshold keyword.
  Defaulting to new monopole extrapolation.
  Density update method: automatic selection selected.
------------------------------------------------------------


------------------------------------------------------------
          Reading geometry description geometry.in.
------------------------------------------------------------
 * Warning: Initial charge and total charge of the system are inconsistent.
 * Selected charge in control.in:     1.0000* Sum of initial charges in geometry.in:     0.0000
  Input structure read successfully.
  The structure contains        2 atoms,  and a total of         15.000 electrons.

  Input geometry:
  | No unit cell requested.
  | Atomic structure:
  |       Atom                x [A]            y [A]            z [A]
  |    1: Species O              0.000000         0.000000         0.042359
  |    2: Species O              0.000000         0.000000         1.167641
  |

  | The smallest distance between any two atoms is         1.12528158 AA.
  |
  | The first atom of this pair is atom number                      1 .
  | The second atom of this pair is atom number                     2 .

  Number of empty states per atom not set in control.in - providing a guess from actual geometry.
  | Total number of empty states used during s.c.f. cycle:        6
  If you use a very high smearing, use empty_states (per atom!) in control.in to increase this value.

  Structure-dependent array size parameters: 
  | Maximum number of distinct radial functions  :       11
  | Maximum number of basis functions            :       78
  | Number of Kohn-Sham states (occupied + empty):       14
------------------------------------------------------------

------------------------------------------------------------
          Preparing all fixed parts of the calculation.
------------------------------------------------------------
  Determining machine precision:
    2.225073858507201E-308
  Setting up grids for atomic and cluster calculations.

  Creating wave function, potential, and density for free atoms.

  Species: O

  List of occupied orbitals and eigenvalues:
    n    l              occ      energy [Ha]    energy [eV]
    1    0           2.0000       -18.898576      -514.2564
    2    0           2.0000        -0.878795       -23.9132
    2    1           4.0000        -0.332075        -9.0362

  Creating fixed part of basis set: Ionic, confined, hydrogenic.
 
  O                    hydrogenic:
 
  List of hydrogenic basis orbitals: 
    n    l      effective z      eigenvalue [eV]  inner max. [A]     outer max. [A]     outer radius [A]   
    2    1         1.800000       -11.0118           1.178562           1.178562           5.432602
    3    2         7.600000       -87.3183           0.624125           0.624125           4.634338
    3    0         6.400000       -61.9210           0.061167           1.081902           5.110480
    4    3        11.600000      -114.4239           0.731631           0.731631           4.522403
    3    1         6.200000       -58.1114           0.255680           1.030270           5.110480
    3    2         5.600000       -47.4083           0.847233           0.847233           5.173339
    5    4        17.600000      -168.5800           0.749740           0.749740           4.051222
    1    0         0.750000        -7.6499           0.705284           0.705284           5.366593
 

  Adding cutoff potential to free-atom effective potential.
  Creating atomic-like basis functions for current effective potential.

  Species O                   :

  List of atomic basis orbitals and eigenvalues:
    n    l      energy [Ha]    energy [eV]    outer radius [A]
    1    0       -18.898576      -514.2564       1.415765
    2    0        -0.878795       -23.9132       5.048385
    2    1        -0.332075        -9.0362       5.301386

  Assembling full basis from fixed parts.
  | Species O :   atomic orbital   1 s accepted.
  | Species O :   atomic orbital   2 s accepted.
  | Species O :    hydro orbital   3 s accepted.
  | Species O :    hydro orbital   1 s accepted.
  | Species O :   atomic orbital   2 p accepted.
  | Species O :    hydro orbital   2 p accepted.
  | Species O :    hydro orbital   3 p accepted.
  | Species O :    hydro orbital   3 d accepted.
  | Species O :    hydro orbital   3 d accepted.
  | Species O :    hydro orbital   4 f accepted.
  | Species O :    hydro orbital   5 g accepted.
 
  Basis size parameters after reduction:
  | Total number of radial functions:       11
  | Total number of basis functions :       78
 
  Testing on-site integration grid accuracy.
  |  Species  Function  <phi|h_atom|phi> (log., in eV)  <phi|h_atom|phi> (rad., in eV)
           1        1               -514.2564144315               -514.2564099626
           1        2                -23.9132357102                -23.9132356433
           1        3                 17.5398579759                 17.5398338425
           1        4                 14.5207278950                 14.5207740449
           1        5                 -9.0362392718                 -9.0362394845
           1        6                  7.9056275927                  7.9056237490
           1        7                 33.4201658992                 33.4201612015
           1        8                 45.8231952720                 45.8231953152
           1        9                 52.1937595491                 52.1937593440
           1       10                 85.4062894308                 85.4062894578
           1       11                142.0975701139                142.0975701391

  Preparing densities etc. for the partition functions (integrals / Hartree potential).

  Preparations completed.
  max(cpu_time)          :      0.146 s.
  Wall clock time (cpu1) :      0.159 s.
------------------------------------------------------------

------------------------------------------------------------
          Begin self-consistency loop: Initialization.

          Date     :  20190722, Time     :  144537.302
------------------------------------------------------------

  Initializing index lists of integration centers etc. from given atomic structure:
  | Number of centers in hartree potential         :         2
  | Number of centers in hartree multipole         :         2
  | Number of centers in electron density summation:         2
  | Number of centers in basis integrals           :         2
  | Number of centers in integrals                 :         2
  | Number of centers in hamiltonian               :         2
  Partitioning the integration grid into batches with parallel hashing+maxmin method.
  | Number of batches:      746
  | Maximal batch size:     112
  | Minimal batch size:      49
  | Average batch size:      71.394
  | Standard deviation of batch sizes:      21.536

  Integration load balanced across     4 MPI tasks.
  Work distribution over tasks is as follows:
  Task     0 has      13380 integration points.
  Task     1 has      13301 integration points.
  Task     2 has      13300 integration points.
  Task     3 has      13279 integration points.
  Initializing partition tables, free-atom densities, potentials, etc. across the integration grid (initialize_grid_storage).
  | initialize_grid_storage: Actual outermost partition radius vs. multipole_radius_free
  | (-- VB: in principle, multipole_radius_free should be larger, hence this output)
  | Species        1: Confinement radius =              6.000000000000000 AA, multipole_radius_free =              6.064445521808699 AA.
  | Species        1: outer_partition_radius set to              6.064445521808699 AA .
  | Original list of interatomic distances with           2 x          2 entries is created.
  | Net number of integration points:    53260
  | of which are non-zero points    :    50010
  Obtaining max. number of non-zero basis functions in each batch (get_n_compute_maxes).
  | Maximal number of non-zero basis functions:       78 in task     0
  | Maximal number of non-zero basis functions:       78 in task     1
  | Maximal number of non-zero basis functions:       78 in task     2
  | Maximal number of non-zero basis functions:       78 in task     3
  Selecting the method for density update.
  Loop over occupied states selected for charge density update.
  Integrating Hamiltonian matrix: batch-based integration.
  Time summed over all CPUs for integration: real work        0.168 s, elapsed        0.168 s
  Integrating overlap matrix.
  Time summed over all CPUs for integration: real work        0.061 s, elapsed        0.061 s

  Reading cluster restart information from file restart
  Writing Kohn-Sham eigenvalues.

  State    Occupation    Eigenvalue [Ha]    Eigenvalue [eV]
      1       2.00000         -18.890116         -514.02622
      2       2.00000         -18.889903         -514.02042
      3       2.00000          -1.264962          -34.42137
      4       2.00000          -0.702169          -19.10699
      5       2.00000          -0.501484          -13.64608
      6       2.00000          -0.501484          -13.64608
      7       2.00000          -0.494530          -13.45685
      8       1.00000          -0.187742           -5.10873
      9       1.00000          -0.187742           -5.10873
     10       0.00000           0.098767            2.68759
     11       0.00000           0.105011            2.85750
     12       0.00000           0.133245            3.62577
     13       0.00000           0.000000            0.00000
     14       0.00000           0.000000            0.00000

  Highest occupied state (VBM) at     -5.10872876 eV
  | Occupation number:      1.00000003

  Lowest unoccupied state (CBM) at    -5.10872876 eV
  | Occupation number:      0.99999997

  Overall HOMO-LUMO gap:      0.00000000 eV.
*** get_ev_sum_p0 expected pure occ_numbers
*** sum(occ_numbers) =  1.6000000000000000E+01 instead of  1.5000000000000000E+01
  Calculating total energy contributions from superposition of free atom densities.
*** get_entropy_correction expected pure occ_numbers
*** sum(occ_numbers) =  1.6000000000000000E+01 instead of  1.5000000000000000E+01
*** get_penalty_energy expected pure occ_numbers
*** sum(occ_numbers) =  1.6000000000000000E+01 instead of  1.5000000000000000E+01

  Total energy components:
  | Sum of eigenvalues            :         -82.86478256 Ha       -2254.86545983 eV
  | XC energy correction          :         -16.81893164 Ha        -457.66641563 eV
  | XC potential correction       :          21.62474860 Ha         588.43934876 eV
  | Free-atom electrostatic energy:         -71.52330919 Ha       -1946.24826722 eV
  | Hartree energy correction     :           0.00000000 Ha           0.00000000 eV
  | Entropy correction            :          -0.00020734 Ha          -0.00564190 eV
  | ---------------------------
  | Total energy                  :        -149.58227480 Ha       -4070.34079392 eV
  | Total energy, T -> 0          :        -149.58248213 Ha       -4070.34643582 eV  <-- do not rely on this value for anything but (periodic) metals
  | Electronic free energy        :        -149.58268947 Ha       -4070.35207772 eV

  Derived energy quantities:
  | Kinetic energy                :         150.54623344 Ha        4096.57144310 eV
  | Electrostatic energy          :        -283.30957660 Ha       -7709.24582139 eV
  | Energy correction for multipole
  | error in Hartree potential    :           0.00000000 Ha           0.00000000 eV
  | Sum of eigenvalues per atom                           :       -1127.43272992 eV
  | Total energy (T->0) per atom                          :       -2035.17321791 eV  <-- do not rely on this value for anything but (periodic) metals
  | Electronic free energy per atom                       :       -2035.17603886 eV
  Initialize hartree_potential_storage
  Max. number of atoms included in rho_multipole:            2

  End scf initialization - timings             :  max(cpu_time)    wall_clock(cpu1)
  | Time for scf. initialization               :        0.120 s           0.120 s
  | Boundary condition initialization          :        0.000 s           0.001 s
  | Integration                                :        0.058 s           0.058 s
  | Solution of K.-S. eqns.                    :        0.002 s           0.001 s
  | Grid partitioning                          :        0.022 s           0.022 s
  | Preloading free-atom quantities on grid    :        0.017 s           0.018 s
  | Free-atom superposition energy             :        0.009 s           0.009 s
  | Total energy evaluation                    :        0.001 s           0.001 s
------------------------------------------------------------

------------------------------------------------------------
          Initial SCF-cycle to compute last known
          density from restart information.

  Date     :  20190722, Time     :  144537.423
------------------------------------------------------------
*** scf_solver:charge expected kweighted occ_numbers
*** sum(occ_numbers) =  1.6000000000000000E+01 instead of  1.5000000000000000E+01
  Evaluating new KS density.
*** update_density_and_forces_p2 expected kweighted occ_numbers
*** sum(occ_numbers) =  1.6000000000000000E+01 instead of  1.5000000000000000E+01
  Integration grid: deviation in total charge (<rho> - N_e) =   1.000000E+00

  Evaluating partitioned Hartree potential by multipole expansion.
  | Analytical far-field extrapolation by fixed multipoles:
  | Hartree multipole sum: apparent total charge =  -0.105741E-06
  Summing up the Hartree potential.
  Time summed over all CPUs for potential: real work        0.098 s, elapsed        0.099 s
  | RMS charge density error from multipole expansion :   0.641540E-03

  Integrating Hamiltonian matrix: batch-based integration.
  Time summed over all CPUs for integration: real work        0.164 s, elapsed        0.165 s

  Updating Kohn-Sham eigenvalues, eigenvectors, occupation numbers, and Fermi level.
  Solving generalized eigenproblem
  Updating Kohn-Sham eigenvalues and eigenfunctions.
  Transforming overlap matrix and checking for singularities.
  Overlap matrix is nonsingular:
  | Lowest eigenvalue:  0.187908E-03
  Solving real generalised eigenvalue problem by standard LAPACK (fast)
  Determining occupation numbers for Kohn-Sham eigenstates.
  | Chemical potential (Fermi level) in eV                 : -.51134997E+01
  | Error in electron count due to remaining E_F inaccuracy: -.60407501E-09
  | Maximum occupation number of highest empty state:  0.00E+00

  Highest occupied state (VBM) at    -13.45685416 eV
  | Occupation number:      2.00000000

  Lowest unoccupied state (CBM) at    -5.10873036 eV
  | Occupation number:      0.50000162

  Overall HOMO-LUMO gap:      8.34812380 eV.

  Total energy components:
  | Sum of eigenvalues            :         -82.67704132 Ha       -2249.75676064 eV
  | XC energy correction          :         -16.91326489 Ha        -460.23335396 eV
  | XC potential correction       :          21.74738712 Ha         591.77651273 eV
  | Free-atom electrostatic energy:         -71.52330919 Ha       -1946.24826722 eV
  | Hartree energy correction     :          -0.64804648 Ha         -17.63424198 eV
  | Entropy correction            :          -0.00016515 Ha          -0.00449404 eV
  | ---------------------------
  | Total energy                  :        -150.01427476 Ha       -4082.09611107 eV
  | Total energy, T -> 0          :        -150.01443992 Ha       -4082.10060511 eV  <-- do not rely on this value for anything but (periodic) metals
  | Electronic free energy        :        -150.01460507 Ha       -4082.10509915 eV

  Derived energy quantities:
  | Kinetic energy                :         150.38318678 Ha        4092.13471773 eV
  | Electrostatic energy          :        -283.48419665 Ha       -7713.99747484 eV
  | Energy correction for multipole
  | error in Hartree potential    :          -0.00058630 Ha          -0.01595412 eV
  | Sum of eigenvalues per atom                           :       -1124.87838032 eV
  | Total energy (T->0) per atom                          :       -2041.05030256 eV  <-- do not rely on this value for anything but (periodic) metals
  | Electronic free energy per atom                       :       -2041.05254958 eV

  Self-consistency convergence accuracy:
  | Change of charge density      :  0.1358E+00
  | Change of sum of eigenvalues  :  0.5109E+01 eV
  | Change of total energy        : -0.1176E+02 eV

  End self-consistency iteration #     0       :  max(cpu_time)    wall_clock(cpu1)
  | Time for this iteration                    :        0.114 s           0.113 s
  | Charge density update                      :        0.033 s           0.032 s
  | Density mixing                             :        0.000 s           0.000 s
  | Hartree multipole update                   :        0.005 s           0.004 s
  | Hartree multipole summation                :        0.026 s           0.026 s
  | Integration                                :        0.042 s           0.042 s
  | Solution of K.-S. eqns.                    :        0.008 s           0.008 s
  | Total energy evaluation                    :        0.000 s           0.001 s
------------------------------------------------------------

------------------------------------------------------------
          Begin self-consistency iteration #    1

  Date     :  20190722, Time     :  144537.538
------------------------------------------------------------
  Evaluating new KS density.
  Integration grid: deviation in total charge (<rho> - N_e) =  -6.041478E-10
  Pulay mixing of updated and previous charge densities.

  Evaluating partitioned Hartree potential by multipole expansion.
  | Analytical far-field extrapolation by fixed multipoles:
  | Hartree multipole sum: apparent total charge =   0.200000E+00
  Summing up the Hartree potential.
  Time summed over all CPUs for potential: real work        0.097 s, elapsed        0.098 s
  | RMS charge density error from multipole expansion :   0.565000E-03

  Integrating Hamiltonian matrix: batch-based integration.
  Time summed over all CPUs for integration: real work        0.164 s, elapsed        0.165 s

  Updating Kohn-Sham eigenvalues, eigenvectors, occupation numbers, and Fermi level.
  Solving generalized eigenproblem
  Updating Kohn-Sham eigenvalues and eigenfunctions.
  Solving real generalised eigenvalue problem by standard LAPACK (fast)
  Determining occupation numbers for Kohn-Sham eigenstates.
  | Chemical potential (Fermi level) in eV                 : -.81945809E+01
  | Error in electron count due to remaining E_F inaccuracy: -.22283348E-08
  | Maximum occupation number of highest empty state:  0.00E+00

  Writing Kohn-Sham eigenvalues.

  State    Occupation    Eigenvalue [Ha]    Eigenvalue [eV]
      1       2.00000         -19.044923         -518.23873
      2       2.00000         -19.044711         -518.23296
      3       2.00000          -1.389020          -37.79715
      4       2.00000          -0.813688          -22.14157
      5       2.00000          -0.615386          -16.74550
      6       2.00000          -0.615386          -16.74550
      7       2.00000          -0.605900          -16.48737
      8       0.50001          -0.300970           -8.18981
      9       0.49999          -0.300970           -8.18981
     10       0.00000           0.042824            1.16530
     11       0.00000           0.049510            1.34724
     12       0.00000           0.078302            2.13071
     13       0.00000           0.078302            2.13071
     14       0.00000           0.157571            4.28773

  Highest occupied state (VBM) at    -16.48736873 eV
  | Occupation number:      2.00000000

  Lowest unoccupied state (CBM) at    -8.18981165 eV
  | Occupation number:      0.50001439

  Overall HOMO-LUMO gap:      8.29755708 eV.

  Total energy components:
  | Sum of eigenvalues            :         -84.55899693 Ha       -2300.96737844 eV
  | XC energy correction          :         -16.76082688 Ha        -456.08530489 eV
  | XC potential correction       :          21.54777006 Ha         586.34465628 eV
  | Free-atom electrostatic energy:         -71.52330919 Ha       -1946.24826722 eV
  | Hartree energy correction     :           1.37746235 Ha          37.48265768 eV
  | Entropy correction            :          -0.00016515 Ha          -0.00449404 eV
  | ---------------------------
  | Total energy                  :        -149.91790060 Ha       -4079.47363658 eV
  | Total energy, T -> 0          :        -149.91806575 Ha       -4079.47813062 eV  <-- do not rely on this value for anything but (periodic) metals
  | Electronic free energy        :        -149.91823090 Ha       -4079.48262466 eV

  Derived energy quantities:
  | Kinetic energy                :         149.83027176 Ha        4077.08913451 eV
  | Electrostatic energy          :        -282.98734547 Ha       -7700.47746620 eV
  | Energy correction for multipole
  | error in Hartree potential    :          -0.00047101 Ha          -0.01281671 eV
  | Sum of eigenvalues per atom                           :       -1150.48368922 eV
  | Total energy (T->0) per atom                          :       -2039.73906531 eV  <-- do not rely on this value for anything but (periodic) metals
  | Electronic free energy per atom                       :       -2039.74131233 eV

  Self-consistency convergence accuracy:
  | Change of charge density      :  0.2168E+00
  | Change of sum of eigenvalues  : -0.5121E+02 eV
  | Change of total energy        :  0.2622E+01 eV

  End self-consistency iteration #     1       :  max(cpu_time)    wall_clock(cpu1)
  | Time for this iteration                    :        0.105 s           0.104 s
  | Charge density update                      :        0.030 s           0.029 s
  | Density mixing                             :        0.001 s           0.002 s
  | Hartree multipole update                   :        0.004 s           0.003 s
  | Hartree multipole summation                :        0.026 s           0.026 s
  | Integration                                :        0.042 s           0.042 s
  | Solution of K.-S. eqns.                    :        0.001 s           0.001 s
  | Total energy evaluation                    :        0.000 s           0.001 s
------------------------------------------------------------

------------------------------------------------------------
          Begin self-consistency iteration #    2

  Date     :  20190722, Time     :  144537.643
------------------------------------------------------------
  Evaluating new KS density.
  Integration grid: deviation in total charge (<rho> - N_e) =  -2.228344E-09
  Pulay mixing of updated and previous charge densities.

  Evaluating partitioned Hartree potential by multipole expansion.
  | Analytical far-field extrapolation by fixed multipoles:
  | Hartree multipole sum: apparent total charge =   0.551838E+00
  Summing up the Hartree potential.
  Time summed over all CPUs for potential: real work        0.096 s, elapsed        0.097 s
  | RMS charge density error from multipole expansion :   0.496622E-03

  Integrating Hamiltonian matrix: batch-based integration.
  Time summed over all CPUs for integration: real work        0.164 s, elapsed        0.165 s

  Updating Kohn-Sham eigenvalues, eigenvectors, occupation numbers, and Fermi level.
  Solving generalized eigenproblem
  Updating Kohn-Sham eigenvalues and eigenfunctions.
  Solving real generalised eigenvalue problem by standard LAPACK (fast)
  Determining occupation numbers for Kohn-Sham eigenstates.
  | Chemical potential (Fermi level) in eV                 : -.13115800E+02
  | Error in electron count due to remaining E_F inaccuracy: 0.12434498E-13
  | Maximum occupation number of highest empty state:  0.00E+00

  Highest occupied state (VBM) at    -21.30662839 eV
  | Occupation number:      2.00000000

  Lowest unoccupied state (CBM) at   -13.11103437 eV
  | Occupation number:      0.50029891

  Overall HOMO-LUMO gap:      8.19559403 eV.

  Total energy components:
  | Sum of eigenvalues            :         -87.46851693 Ha       -2380.13944571 eV
  | XC energy correction          :         -16.54641101 Ha        -450.25075198 eV
  | XC potential correction       :          21.26696424 Ha         578.70354105 eV
  | Free-atom electrostatic energy:         -71.52330919 Ha       -1946.24826722 eV
  | Hartree energy correction     :           4.44645555 Ha         120.99421154 eV
  | Entropy correction            :          -0.00016515 Ha          -0.00449404 eV
  | ---------------------------
  | Total energy                  :        -149.82481734 Ha       -4076.94071231 eV
  | Total energy, T -> 0          :        -149.82498249 Ha       -4076.94520635 eV  <-- do not rely on this value for anything but (periodic) metals
  | Electronic free energy        :        -149.82514765 Ha       -4076.94970039 eV

  Derived energy quantities:
  | Kinetic energy                :         149.13534505 Ha        4058.17921657 eV
  | Electrostatic energy          :        -282.41375138 Ha       -7684.86917690 eV
  | Energy correction for multipole
  | error in Hartree potential    :          -0.00036521 Ha          -0.00993785 eV
  | Sum of eigenvalues per atom                           :       -1190.06972285 eV
  | Total energy (T->0) per atom                          :       -2038.47260318 eV  <-- do not rely on this value for anything but (periodic) metals
  | Electronic free energy per atom                       :       -2038.47485019 eV

  Self-consistency convergence accuracy:
  | Change of charge density      :  0.1326E+00
  | Change of sum of eigenvalues  : -0.7917E+02 eV
  | Change of total energy        :  0.2533E+01 eV

  End self-consistency iteration #     2       :  max(cpu_time)    wall_clock(cpu1)
  | Time for this iteration                    :        0.105 s           0.105 s
  | Charge density update                      :        0.030 s           0.030 s
  | Density mixing                             :        0.002 s           0.002 s
  | Hartree multipole update                   :        0.004 s           0.004 s
  | Hartree multipole summation                :        0.026 s           0.025 s
  | Integration                                :        0.042 s           0.042 s
  | Solution of K.-S. eqns.                    :        0.001 s           0.001 s
  | Total energy evaluation                    :        0.000 s           0.001 s
------------------------------------------------------------

------------------------------------------------------------
          Begin self-consistency iteration #    3

  Date     :  20190722, Time     :  144537.749
------------------------------------------------------------
  Evaluating new KS density.
  Integration grid: deviation in total charge (<rho> - N_e) =   1.705303E-13
  Pulay mixing of updated and previous charge densities.

  Evaluating partitioned Hartree potential by multipole expansion.
  | Analytical far-field extrapolation by fixed multipoles:
  | Hartree multipole sum: apparent total charge =   0.102689E+01
  Summing up the Hartree potential.
  Time summed over all CPUs for potential: real work        0.096 s, elapsed        0.099 s
  | RMS charge density error from multipole expansion :   0.483057E-03

  Integrating Hamiltonian matrix: batch-based integration.
  Time summed over all CPUs for integration: real work        0.167 s, elapsed        0.175 s

  Updating Kohn-Sham eigenvalues, eigenvectors, occupation numbers, and Fermi level.
  Solving generalized eigenproblem
  Updating Kohn-Sham eigenvalues and eigenfunctions.
  Solving real generalised eigenvalue problem by standard LAPACK (fast)
  Determining occupation numbers for Kohn-Sham eigenstates.
  | Chemical potential (Fermi level) in eV                 : -.18099664E+02
  | Error in electron count due to remaining E_F inaccuracy: 0.12612134E-12
  | Maximum occupation number of highest empty state:  0.00E+00

  Highest occupied state (VBM) at    -26.21806278 eV
  | Occupation number:      2.00000000

  Lowest unoccupied state (CBM) at   -18.09506768 eV
  | Occupation number:      0.51568296

  Overall HOMO-LUMO gap:      8.12299510 eV.

  Total energy components:
  | Sum of eigenvalues            :         -90.17905739 Ha       -2453.89700461 eV
  | XC energy correction          :         -16.41430659 Ha        -446.65600785 eV
  | XC potential correction       :          21.09386160 Ha         573.99317859 eV
  | Free-atom electrostatic energy:         -71.52330919 Ha       -1946.24826722 eV
  | Hartree energy correction     :           7.22903908 Ha         196.71216185 eV
  | Entropy correction            :          -0.00016510 Ha          -0.00449267 eV
  | ---------------------------
  | Total energy                  :        -149.79377250 Ha       -4076.09593924 eV
  | Total energy, T -> 0          :        -149.79393760 Ha       -4076.10043191 eV  <-- do not rely on this value for anything but (periodic) metals
  | Electronic free energy        :        -149.79410271 Ha       -4076.10492458 eV

  Derived energy quantities:
  | Kinetic energy                :         149.26303865 Ha        4061.65393632 eV
  | Electrostatic energy          :        -282.64250456 Ha       -7691.09386770 eV
  | Energy correction for multipole
  | error in Hartree potential    :          -0.00052067 Ha          -0.01416814 eV
  | Sum of eigenvalues per atom                           :       -1226.94850230 eV
  | Total energy (T->0) per atom                          :       -2038.05021596 eV  <-- do not rely on this value for anything but (periodic) metals
  | Electronic free energy per atom                       :       -2038.05246229 eV

  Self-consistency convergence accuracy:
  | Change of charge density      :  0.5887E-01
  | Change of sum of eigenvalues  : -0.7376E+02 eV
  | Change of total energy        :  0.8448E+00 eV

  End self-consistency iteration #     3       :  max(cpu_time)    wall_clock(cpu1)
  | Time for this iteration                    :        0.106 s           0.106 s
  | Charge density update                      :        0.030 s           0.029 s
  | Density mixing                             :        0.001 s           0.002 s
  | Hartree multipole update                   :        0.004 s           0.004 s
  | Hartree multipole summation                :        0.026 s           0.025 s
  | Integration                                :        0.044 s           0.044 s
  | Solution of K.-S. eqns.                    :        0.001 s           0.001 s
  | Total energy evaluation                    :        0.000 s           0.001 s
------------------------------------------------------------

------------------------------------------------------------
          Begin self-consistency iteration #    4

  Date     :  20190722, Time     :  144537.857
------------------------------------------------------------
  Evaluating new KS density.
  Integration grid: deviation in total charge (<rho> - N_e) =   5.684342E-14
  Pulay mixing of updated and previous charge densities.

  Evaluating partitioned Hartree potential by multipole expansion.
  | Analytical far-field extrapolation by fixed multipoles:
  | Hartree multipole sum: apparent total charge =   0.100167E+01
  Summing up the Hartree potential.
  Time summed over all CPUs for potential: real work        0.098 s, elapsed        0.108 s
  | RMS charge density error from multipole expansion :   0.480315E-03

  Integrating Hamiltonian matrix: batch-based integration.
  Time summed over all CPUs for integration: real work        0.166 s, elapsed        0.169 s

  Updating Kohn-Sham eigenvalues, eigenvectors, occupation numbers, and Fermi level.
  Solving generalized eigenproblem
  Updating Kohn-Sham eigenvalues and eigenfunctions.
  Solving real generalised eigenvalue problem by standard LAPACK (fast)
  Determining occupation numbers for Kohn-Sham eigenstates.
  | Chemical potential (Fermi level) in eV                 : -.17651249E+02
  | Error in electron count due to remaining E_F inaccuracy: 0.31331453E-08
  | Maximum occupation number of highest empty state:  0.00E+00

  Highest occupied state (VBM) at    -25.78185804 eV
  | Occupation number:      2.00000000

  Lowest unoccupied state (CBM) at   -17.64743824 eV
  | Occupation number:      0.58990400

  Overall HOMO-LUMO gap:      8.13441981 eV.

  Total energy components:
  | Sum of eigenvalues            :         -89.90543072 Ha       -2446.45124397 eV
  | XC energy correction          :         -16.43742661 Ha        -447.28513577 eV
  | XC potential correction       :          21.12413850 Ha         574.81705485 eV
  | Free-atom electrostatic energy:         -71.52330919 Ha       -1946.24826722 eV
  | Hartree energy correction     :           6.94886374 Ha         189.08820315 eV
  | Entropy correction            :          -0.00016350 Ha          -0.00444893 eV
  | ---------------------------
  | Total energy                  :        -149.79316429 Ha       -4076.07938895 eV
  | Total energy, T -> 0          :        -149.79332778 Ha       -4076.08383788 eV  <-- do not rely on this value for anything but (periodic) metals
  | Electronic free energy        :        -149.79349128 Ha       -4076.08828681 eV

  Derived energy quantities:
  | Kinetic energy                :         149.38614309 Ha        4065.00377857 eV
  | Electrostatic energy          :        -282.74188077 Ha       -7693.79803176 eV
  | Energy correction for multipole
  | error in Hartree potential    :          -0.00054041 Ha          -0.01470520 eV
  | Sum of eigenvalues per atom                           :       -1223.22562198 eV
  | Total energy (T->0) per atom                          :       -2038.04191894 eV  <-- do not rely on this value for anything but (periodic) metals
  | Electronic free energy per atom                       :       -2038.04414341 eV

  Self-consistency convergence accuracy:
  | Change of charge density      :  0.2471E-01
  | Change of sum of eigenvalues  :  0.7446E+01 eV
  | Change of total energy        :  0.1655E-01 eV

  End self-consistency iteration #     4       :  max(cpu_time)    wall_clock(cpu1)
  | Time for this iteration                    :        0.110 s           0.110 s
  | Charge density update                      :        0.031 s           0.031 s
  | Density mixing                             :        0.002 s           0.002 s
  | Hartree multipole update                   :        0.005 s           0.004 s
  | Hartree multipole summation                :        0.028 s           0.028 s
  | Integration                                :        0.043 s           0.042 s
  | Solution of K.-S. eqns.                    :        0.001 s           0.002 s
  | Total energy evaluation                    :        0.000 s           0.000 s
------------------------------------------------------------

------------------------------------------------------------
          Begin self-consistency iteration #    5

  Date     :  20190722, Time     :  144537.968
------------------------------------------------------------
  Evaluating new KS density.
  Integration grid: deviation in total charge (<rho> - N_e) =   3.133099E-09
  Pulay mixing of updated and previous charge densities.

  Evaluating partitioned Hartree potential by multipole expansion.
  | Analytical far-field extrapolation by fixed multipoles:
  | Hartree multipole sum: apparent total charge =   0.993585E+00
  Summing up the Hartree potential.
  Time summed over all CPUs for potential: real work        0.096 s, elapsed        0.096 s
  | RMS charge density error from multipole expansion :   0.479807E-03

  Integrating Hamiltonian matrix: batch-based integration.
  Time summed over all CPUs for integration: real work        0.174 s, elapsed        0.175 s

  Updating Kohn-Sham eigenvalues, eigenvectors, occupation numbers, and Fermi level.
  Solving generalized eigenproblem
  Updating Kohn-Sham eigenvalues and eigenfunctions.
  Solving real generalised eigenvalue problem by standard LAPACK (fast)
  Determining occupation numbers for Kohn-Sham eigenstates.
  | Chemical potential (Fermi level) in eV                 : -.17506908E+02
  | Error in electron count due to remaining E_F inaccuracy: -.40927262E-11
  | Maximum occupation number of highest empty state:  0.00E+00

  Highest occupied state (VBM) at    -25.64139450 eV
  | Occupation number:      2.00000000

  Lowest unoccupied state (CBM) at   -17.50216897 eV
  | Occupation number:      0.50275521

  Overall HOMO-LUMO gap:      8.13922553 eV.

  Total energy components:
  | Sum of eigenvalues            :         -89.81747480 Ha       -2444.05784160 eV
  | XC energy correction          :         -16.44486753 Ha        -447.48761346 eV
  | XC potential correction       :          21.13388488 Ha         575.08226741 eV
  | Free-atom electrostatic energy:         -71.52330919 Ha       -1946.24826722 eV
  | Hartree energy correction     :           6.85867441 Ha         186.63402666 eV
  | Entropy correction            :          -0.00016515 Ha          -0.00449400 eV
  | ---------------------------
  | Total energy                  :        -149.79309223 Ha       -4076.07742821 eV
  | Total energy, T -> 0          :        -149.79325738 Ha       -4076.08192221 eV  <-- do not rely on this value for anything but (periodic) metals
  | Electronic free energy        :        -149.79342254 Ha       -4076.08641620 eV

  Derived energy quantities:
  | Kinetic energy                :         149.42490652 Ha        4066.05858517 eV
  | Electrostatic energy          :        -282.77313122 Ha       -7694.64839992 eV
  | Energy correction for multipole
  | error in Hartree potential    :          -0.00054635 Ha          -0.01486707 eV
  | Sum of eigenvalues per atom                           :       -1222.02892080 eV
  | Total energy (T->0) per atom                          :       -2038.04096110 eV  <-- do not rely on this value for anything but (periodic) metals
  | Electronic free energy per atom                       :       -2038.04320810 eV

  Self-consistency convergence accuracy:
  | Change of charge density      :  0.3278E-01
  | Change of sum of eigenvalues  :  0.2393E+01 eV
  | Change of total energy        :  0.1961E-02 eV

  End self-consistency iteration #     5       :  max(cpu_time)    wall_clock(cpu1)
  | Time for this iteration                    :        0.113 s           0.113 s
  | Charge density update                      :        0.030 s           0.029 s
  | Density mixing                             :        0.002 s           0.003 s
  | Hartree multipole update                   :        0.004 s           0.003 s
  | Hartree multipole summation                :        0.026 s           0.025 s
  | Integration                                :        0.046 s           0.046 s
  | Solution of K.-S. eqns.                    :        0.005 s           0.005 s
  | Total energy evaluation                    :        0.001 s           0.001 s
------------------------------------------------------------

------------------------------------------------------------
          Begin self-consistency iteration #    6

  Date     :  20190722, Time     :  144538.083
------------------------------------------------------------
  Evaluating new KS density.
  Integration grid: deviation in total charge (<rho> - N_e) =  -3.634426E-12
  Pulay mixing of updated and previous charge densities.

  Evaluating partitioned Hartree potential by multipole expansion.
  | Analytical far-field extrapolation by fixed multipoles:
  | Hartree multipole sum: apparent total charge =   0.999216E+00
  Summing up the Hartree potential.
  Time summed over all CPUs for potential: real work        0.097 s, elapsed        0.098 s
  | RMS charge density error from multipole expansion :   0.491151E-03

  Integrating Hamiltonian matrix: batch-based integration.
  Time summed over all CPUs for integration: real work        0.163 s, elapsed        0.164 s

  Updating Kohn-Sham eigenvalues, eigenvectors, occupation numbers, and Fermi level.
  Solving generalized eigenproblem
  Updating Kohn-Sham eigenvalues and eigenfunctions.
  Solving real generalised eigenvalue problem by standard LAPACK (fast)
  Determining occupation numbers for Kohn-Sham eigenstates.
  | Chemical potential (Fermi level) in eV                 : -.17469958E+02
  | Error in electron count due to remaining E_F inaccuracy: -.13050894E-10
  | Maximum occupation number of highest empty state:  0.00E+00

  Highest occupied state (VBM) at    -25.60389741 eV
  | Occupation number:      2.00000000

  Lowest unoccupied state (CBM) at   -17.46520847 eV
  | Occupation number:      0.50177112

  Overall HOMO-LUMO gap:      8.13868894 eV.

  Total energy components:
  | Sum of eigenvalues            :         -89.79196436 Ha       -2443.36366719 eV
  | XC energy correction          :         -16.45028711 Ha        -447.63508777 eV
  | XC potential correction       :          21.14109009 Ha         575.27833107 eV
  | Free-atom electrostatic energy:         -71.52330919 Ha       -1946.24826722 eV
  | Hartree energy correction     :           6.83140149 Ha         185.89189256 eV
  | Entropy correction            :          -0.00016515 Ha          -0.00449402 eV
  | ---------------------------
  | Total energy                  :        -149.79306909 Ha       -4076.07679856 eV
  | Total energy, T -> 0          :        -149.79323425 Ha       -4076.08129258 eV  <-- do not rely on this value for anything but (periodic) metals
  | Electronic free energy        :        -149.79339940 Ha       -4076.08578660 eV

  Derived energy quantities:
  | Kinetic energy                :         149.44475106 Ha        4066.59858247 eV
  | Electrostatic energy          :        -282.78753304 Ha       -7695.04029325 eV
  | Energy correction for multipole
  | error in Hartree potential    :          -0.00053839 Ha          -0.01465035 eV
  | Sum of eigenvalues per atom                           :       -1221.68183360 eV
  | Total energy (T->0) per atom                          :       -2038.04064629 eV  <-- do not rely on this value for anything but (periodic) metals
  | Electronic free energy per atom                       :       -2038.04289330 eV

  Self-consistency convergence accuracy:
  | Change of charge density      :  0.6706E-02
  | Change of sum of eigenvalues  :  0.6942E+00 eV
  | Change of total energy        :  0.6297E-03 eV

  End self-consistency iteration #     6       :  max(cpu_time)    wall_clock(cpu1)
  | Time for this iteration                    :        0.108 s           0.107 s
  | Charge density update                      :        0.031 s           0.031 s
  | Density mixing                             :        0.003 s           0.003 s
  | Hartree multipole update                   :        0.005 s           0.004 s
  | Hartree multipole summation                :        0.026 s           0.026 s
  | Integration                                :        0.041 s           0.041 s
  | Solution of K.-S. eqns.                    :        0.001 s           0.001 s
  | Total energy evaluation                    :        0.001 s           0.001 s
------------------------------------------------------------

------------------------------------------------------------
          Begin self-consistency iteration #    7

  Date     :  20190722, Time     :  144538.192
------------------------------------------------------------
  Evaluating new KS density.
  Integration grid: deviation in total charge (<rho> - N_e) =  -1.324985E-11
  Pulay mixing of updated and previous charge densities.

  Evaluating partitioned Hartree potential by multipole expansion.
  | Analytical far-field extrapolation by fixed multipoles:
  | Hartree multipole sum: apparent total charge =   0.999611E+00
  Summing up the Hartree potential.
  Time summed over all CPUs for potential: real work        0.096 s, elapsed        0.096 s
  | RMS charge density error from multipole expansion :   0.491795E-03

  Integrating Hamiltonian matrix: batch-based integration.
  Time summed over all CPUs for integration: real work        0.165 s, elapsed        0.166 s

  Updating Kohn-Sham eigenvalues, eigenvectors, occupation numbers, and Fermi level.
  Solving generalized eigenproblem
  Updating Kohn-Sham eigenvalues and eigenfunctions.
  Solving real generalised eigenvalue problem by standard LAPACK (fast)
  Determining occupation numbers for Kohn-Sham eigenstates.
  | Chemical potential (Fermi level) in eV                 : -.17471535E+02
  | Error in electron count due to remaining E_F inaccuracy: -.12985168E-11
  | Maximum occupation number of highest empty state:  0.00E+00

  Highest occupied state (VBM) at    -25.60681386 eV
  | Occupation number:      2.00000000

  Lowest unoccupied state (CBM) at   -17.46679980 eV
  | Occupation number:      0.50306524

  Overall HOMO-LUMO gap:      8.14001405 eV.

  Total energy components:
  | Sum of eigenvalues            :         -89.79310617 Ha       -2443.39473753 eV
  | XC energy correction          :         -16.45018477 Ha        -447.63230276 eV
  | XC potential correction       :          21.14096687 Ha         575.27497831 eV
  | Free-atom electrostatic energy:         -71.52330919 Ha       -1946.24826722 eV
  | Hartree energy correction     :           6.83256428 Ha         185.92353382 eV
  | Entropy correction            :          -0.00016515 Ha          -0.00449399 eV
  | ---------------------------
  | Total energy                  :        -149.79306898 Ha       -4076.07679537 eV
  | Total energy, T -> 0          :        -149.79323413 Ha       -4076.08128936 eV  <-- do not rely on this value for anything but (periodic) metals
  | Electronic free energy        :        -149.79339928 Ha       -4076.08578335 eV

  Derived energy quantities:
  | Kinetic energy                :         149.44221227 Ha        4066.52949859 eV
  | Electrostatic energy          :        -282.78509648 Ha       -7694.97399121 eV
  | Energy correction for multipole
  | error in Hartree potential    :          -0.00053696 Ha          -0.01461142 eV
  | Sum of eigenvalues per atom                           :       -1221.69736876 eV
  | Total energy (T->0) per atom                          :       -2038.04064468 eV  <-- do not rely on this value for anything but (periodic) metals
  | Electronic free energy per atom                       :       -2038.04289167 eV

  Self-consistency convergence accuracy:
  | Change of charge density      :  0.8767E-03
  | Change of sum of eigenvalues  : -0.3107E-01 eV
  | Change of total energy        :  0.3183E-05 eV

  End self-consistency iteration #     7       :  max(cpu_time)    wall_clock(cpu1)
  | Time for this iteration                    :        0.109 s           0.109 s
  | Charge density update                      :        0.031 s           0.031 s
  | Density mixing                             :        0.004 s           0.004 s
  | Hartree multipole update                   :        0.004 s           0.004 s
  | Hartree multipole summation                :        0.025 s           0.024 s
  | Integration                                :        0.043 s           0.042 s
  | Solution of K.-S. eqns.                    :        0.002 s           0.002 s
  | Total energy evaluation                    :        0.000 s           0.000 s
------------------------------------------------------------

------------------------------------------------------------
          Begin self-consistency iteration #    8

  Date     :  20190722, Time     :  144538.302
------------------------------------------------------------
  Evaluating new KS density.
  Integration grid: deviation in total charge (<rho> - N_e) =  -1.159961E-12
  Pulay mixing of updated and previous charge densities.

  Evaluating partitioned Hartree potential by multipole expansion.
  | Analytical far-field extrapolation by fixed multipoles:
  | Hartree multipole sum: apparent total charge =   0.100006E+01
  Summing up the Hartree potential.
  Time summed over all CPUs for potential: real work        0.098 s, elapsed        0.100 s
  | RMS charge density error from multipole expansion :   0.492693E-03

  Integrating Hamiltonian matrix: batch-based integration.
  Time summed over all CPUs for integration: real work        0.166 s, elapsed        0.170 s

  Updating Kohn-Sham eigenvalues, eigenvectors, occupation numbers, and Fermi level.
  Solving generalized eigenproblem
  Updating Kohn-Sham eigenvalues and eigenfunctions.
  Solving real generalised eigenvalue problem by standard LAPACK (fast)
  Determining occupation numbers for Kohn-Sham eigenstates.
  | Chemical potential (Fermi level) in eV                 : -.17465798E+02
  | Error in electron count due to remaining E_F inaccuracy: -.14363444E-09
  | Maximum occupation number of highest empty state:  0.00E+00

  Highest occupied state (VBM) at    -25.60188601 eV
  | Occupation number:      2.00000000

  Lowest unoccupied state (CBM) at   -17.46103164 eV
  | Occupation number:      0.50026844

  Overall HOMO-LUMO gap:      8.14085437 eV.

  Total energy components:
  | Sum of eigenvalues            :         -89.78915990 Ha       -2443.28735409 eV
  | XC energy correction          :         -16.45080064 Ha        -447.64906163 eV
  | XC potential correction       :          21.14178457 Ha         575.29722882 eV
  | Free-atom electrostatic energy:         -71.52330919 Ha       -1946.24826722 eV
  | Hartree energy correction     :           6.82841649 Ha         185.81066664 eV
  | Entropy correction            :          -0.00016515 Ha          -0.00449404 eV
  | ---------------------------
  | Total energy                  :        -149.79306869 Ha       -4076.07678748 eV
  | Total energy, T -> 0          :        -149.79323384 Ha       -4076.08128152 eV  <-- do not rely on this value for anything but (periodic) metals
  | Electronic free energy        :        -149.79339899 Ha       -4076.08577556 eV

  Derived energy quantities:
  | Kinetic energy                :         149.44487163 Ha        4066.60186348 eV
  | Electrostatic energy          :        -282.78713967 Ha       -7695.02958933 eV
  | Energy correction for multipole
  | error in Hartree potential    :          -0.00053647 Ha          -0.01459810 eV
  | Sum of eigenvalues per atom                           :       -1221.64367704 eV
  | Total energy (T->0) per atom                          :       -2038.04064076 eV  <-- do not rely on this value for anything but (periodic) metals
  | Electronic free energy per atom                       :       -2038.04288778 eV

  Self-consistency convergence accuracy:
  | Change of charge density      :  0.1210E-02
  | Change of sum of eigenvalues  :  0.1074E+00 eV
  | Change of total energy        :  0.7892E-05 eV

  End self-consistency iteration #     8       :  max(cpu_time)    wall_clock(cpu1)
  | Time for this iteration                    :        0.107 s           0.107 s
  | Charge density update                      :        0.030 s           0.029 s
  | Density mixing                             :        0.003 s           0.003 s
  | Hartree multipole update                   :        0.004 s           0.004 s
  | Hartree multipole summation                :        0.026 s           0.025 s
  | Integration                                :        0.043 s           0.043 s
  | Solution of K.-S. eqns.                    :        0.001 s           0.002 s
  | Total energy evaluation                    :        0.001 s           0.001 s
------------------------------------------------------------

------------------------------------------------------------
          Begin self-consistency iteration #    9

  Date     :  20190722, Time     :  144538.410
------------------------------------------------------------
  Evaluating new KS density.
  Integration grid: deviation in total charge (<rho> - N_e) =  -1.436504E-10
  Pulay mixing of updated and previous charge densities.

  Evaluating partitioned Hartree potential by multipole expansion.
  | Analytical far-field extrapolation by fixed multipoles:
  | Hartree multipole sum: apparent total charge =   0.100006E+01
  Summing up the Hartree potential.
  Time summed over all CPUs for potential: real work        0.097 s, elapsed        0.098 s
  | RMS charge density error from multipole expansion :   0.492696E-03

  Integrating Hamiltonian matrix: batch-based integration.
  Time summed over all CPUs for integration: real work        0.164 s, elapsed        0.165 s

  Updating Kohn-Sham eigenvalues, eigenvectors, occupation numbers, and Fermi level.
  Solving generalized eigenproblem
  Updating Kohn-Sham eigenvalues and eigenfunctions.
  Solving real generalised eigenvalue problem by standard LAPACK (fast)
  Determining occupation numbers for Kohn-Sham eigenstates.
  | Chemical potential (Fermi level) in eV                 : -.17465740E+02
  | Error in electron count due to remaining E_F inaccuracy: -.14814105E-09
  | Maximum occupation number of highest empty state:  0.00E+00

  Highest occupied state (VBM) at    -25.60182934 eV
  | Occupation number:      2.00000000

  Lowest unoccupied state (CBM) at   -17.46097108 eV
  | Occupation number:      0.50005010

  Overall HOMO-LUMO gap:      8.14085827 eV.

  Total energy components:
  | Sum of eigenvalues            :         -89.78912395 Ha       -2443.28637581 eV
  | XC energy correction          :         -16.45080461 Ha        -447.64916961 eV
  | XC potential correction       :          21.14178981 Ha         575.29737159 eV
  | Free-atom electrostatic energy:         -71.52330919 Ha       -1946.24826722 eV
  | Hartree energy correction     :           6.82837926 Ha         185.80965358 eV
  | Entropy correction            :          -0.00016515 Ha          -0.00449404 eV
  | ---------------------------
  | Total energy                  :        -149.79306869 Ha       -4076.07678747 eV
  | Total energy, T -> 0          :        -149.79323384 Ha       -4076.08128151 eV  <-- do not rely on this value for anything but (periodic) metals
  | Electronic free energy        :        -149.79339899 Ha       -4076.08577555 eV

  Derived energy quantities:
  | Kinetic energy                :         149.44488747 Ha        4066.60229443 eV
  | Electrostatic energy          :        -282.78715154 Ha       -7695.02991228 eV
  | Energy correction for multipole
  | error in Hartree potential    :          -0.00053647 Ha          -0.01459802 eV
  | Sum of eigenvalues per atom                           :       -1221.64318791 eV
  | Total energy (T->0) per atom                          :       -2038.04064075 eV  <-- do not rely on this value for anything but (periodic) metals
  | Electronic free energy per atom                       :       -2038.04288777 eV

  Self-consistency convergence accuracy:
  | Change of charge density      :  0.1154E-03
  | Change of sum of eigenvalues  :  0.9783E-03 eV
  | Change of total energy        :  0.1280E-07 eV

  End self-consistency iteration #     9       :  max(cpu_time)    wall_clock(cpu1)
  | Time for this iteration                    :        0.106 s           0.106 s
  | Charge density update                      :        0.030 s           0.030 s
  | Density mixing                             :        0.003 s           0.003 s
  | Hartree multipole update                   :        0.004 s           0.004 s
  | Hartree multipole summation                :        0.026 s           0.025 s
  | Integration                                :        0.042 s           0.041 s
  | Solution of K.-S. eqns.                    :        0.001 s           0.002 s
  | Total energy evaluation                    :        0.000 s           0.001 s
------------------------------------------------------------

------------------------------------------------------------
          Begin self-consistency iteration #   10

  Date     :  20190722, Time     :  144538.517
------------------------------------------------------------
  Evaluating new KS density.
  Integration grid: deviation in total charge (<rho> - N_e) =  -1.487059E-10
  Pulay mixing of updated and previous charge densities.

  Evaluating partitioned Hartree potential by multipole expansion.
  | Analytical far-field extrapolation by fixed multipoles:
  | Hartree multipole sum: apparent total charge =   0.100001E+01
  Summing up the Hartree potential.
  Time summed over all CPUs for potential: real work        0.097 s, elapsed        0.098 s
  | RMS charge density error from multipole expansion :   0.492755E-03

  Integrating Hamiltonian matrix: batch-based integration.
  Time summed over all CPUs for integration: real work        0.164 s, elapsed        0.165 s

  Updating Kohn-Sham eigenvalues, eigenvectors, occupation numbers, and Fermi level.
  Solving generalized eigenproblem
  Updating Kohn-Sham eigenvalues and eigenfunctions.
  Solving real generalised eigenvalue problem by standard LAPACK (fast)
  Determining occupation numbers for Kohn-Sham eigenstates.
  | Chemical potential (Fermi level) in eV                 : -.17464229E+02
  | Error in electron count due to remaining E_F inaccuracy: -.31742964E-09
  | Maximum occupation number of highest empty state:  0.00E+00

  Highest occupied state (VBM) at    -25.60032817 eV
  | Occupation number:      2.00000000

  Lowest unoccupied state (CBM) at   -17.45946300 eV
  | Occupation number:      0.50033809

  Overall HOMO-LUMO gap:      8.14086517 eV.

  Total energy components:
  | Sum of eigenvalues            :         -89.78821266 Ha       -2443.26157831 eV
  | XC energy correction          :         -16.45089517 Ha        -447.65163379 eV
  | XC potential correction       :          21.14190943 Ha         575.30062647 eV
  | Free-atom electrostatic energy:         -71.52330919 Ha       -1946.24826722 eV
  | Hartree energy correction     :           6.82743892 Ha         185.78406553 eV
  | Entropy correction            :          -0.00016515 Ha          -0.00449404 eV
  | ---------------------------
  | Total energy                  :        -149.79306868 Ha       -4076.07678731 eV
  | Total energy, T -> 0          :        -149.79323383 Ha       -4076.08128135 eV  <-- do not rely on this value for anything but (periodic) metals
  | Electronic free energy        :        -149.79339899 Ha       -4076.08577539 eV

  Derived energy quantities:
  | Kinetic energy                :         149.44522538 Ha        4066.61148962 eV
  | Electrostatic energy          :        -282.78739890 Ha       -7695.03664315 eV
  | Energy correction for multipole
  | error in Hartree potential    :          -0.00053640 Ha          -0.01459614 eV
  | Sum of eigenvalues per atom                           :       -1221.63078916 eV
  | Total energy (T->0) per atom                          :       -2038.04064067 eV  <-- do not rely on this value for anything but (periodic) metals
  | Electronic free energy per atom                       :       -2038.04288769 eV

  Self-consistency convergence accuracy:
  | Change of charge density      :  0.6891E-04
  | Change of sum of eigenvalues  :  0.2480E-01 eV
  | Change of total energy        :  0.1567E-06 eV

  End self-consistency iteration #    10       :  max(cpu_time)    wall_clock(cpu1)
  | Time for this iteration                    :        0.108 s           0.108 s
  | Charge density update                      :        0.032 s           0.032 s
  | Density mixing                             :        0.003 s           0.003 s
  | Hartree multipole update                   :        0.004 s           0.004 s
  | Hartree multipole summation                :        0.025 s           0.025 s
  | Integration                                :        0.042 s           0.041 s
  | Solution of K.-S. eqns.                    :        0.001 s           0.002 s
  | Total energy evaluation                    :        0.001 s           0.000 s
------------------------------------------------------------

------------------------------------------------------------
          Begin self-consistency iteration #   11

  Date     :  20190722, Time     :  144538.626
------------------------------------------------------------
  Evaluating new KS density.
  Integration grid: deviation in total charge (<rho> - N_e) =  -3.176126E-10
  Pulay mixing of updated and previous charge densities.

  Evaluating partitioned Hartree potential by multipole expansion.
  | Analytical far-field extrapolation by fixed multipoles:
  | Hartree multipole sum: apparent total charge =   0.999993E+00
  Summing up the Hartree potential.
  Time summed over all CPUs for potential: real work        0.097 s, elapsed        0.100 s
  | RMS charge density error from multipole expansion :   0.492779E-03

  Integrating Hamiltonian matrix: batch-based integration.
  Time summed over all CPUs for integration: real work        0.166 s, elapsed        0.172 s

  Updating Kohn-Sham eigenvalues, eigenvectors, occupation numbers, and Fermi level.
  Solving generalized eigenproblem
  Updating Kohn-Sham eigenvalues and eigenfunctions.
  Solving real generalised eigenvalue problem by standard LAPACK (fast)
  Determining occupation numbers for Kohn-Sham eigenstates.
  | Chemical potential (Fermi level) in eV                 : -.17463707E+02
  | Error in electron count due to remaining E_F inaccuracy: -.39545967E-09
  | Maximum occupation number of highest empty state:  0.00E+00

  Highest occupied state (VBM) at    -25.59980723 eV
  | Occupation number:      2.00000000

  Lowest unoccupied state (CBM) at   -17.45893752 eV
  | Occupation number:      0.50000474

  Overall HOMO-LUMO gap:      8.14086971 eV.

  Total energy components:
  | Sum of eigenvalues            :         -89.78789829 Ha       -2443.25302384 eV
  | XC energy correction          :         -16.45092759 Ha        -447.65251611 eV
  | XC potential correction       :          21.14195231 Ha         575.30179338 eV
  | Free-atom electrostatic energy:         -71.52330919 Ha       -1946.24826722 eV
  | Hartree energy correction     :           6.82711409 Ha         185.77522648 eV
  | Entropy correction            :          -0.00016515 Ha          -0.00449404 eV
  | ---------------------------
  | Total energy                  :        -149.79306868 Ha       -4076.07678730 eV
  | Total energy, T -> 0          :        -149.79323383 Ha       -4076.08128134 eV  <-- do not rely on this value for anything but (periodic) metals
  | Electronic free energy        :        -149.79339899 Ha       -4076.08577538 eV

  Derived energy quantities:
  | Kinetic energy                :         149.44534270 Ha        4066.61468195 eV
  | Electrostatic energy          :        -282.78748379 Ha       -7695.03895314 eV
  | Energy correction for multipole
  | error in Hartree potential    :          -0.00053637 Ha          -0.01459527 eV
  | Sum of eigenvalues per atom                           :       -1221.62651192 eV
  | Total energy (T->0) per atom                          :       -2038.04064067 eV  <-- do not rely on this value for anything but (periodic) metals
  | Electronic free energy per atom                       :       -2038.04288769 eV

  Self-consistency convergence accuracy:
  | Change of charge density      :  0.1181E-03
  | Change of sum of eigenvalues  :  0.8554E-02 eV
  | Change of total energy        :  0.8902E-08 eV

  End self-consistency iteration #    11       :  max(cpu_time)    wall_clock(cpu1)
  | Time for this iteration                    :        0.109 s           0.108 s
  | Charge density update                      :        0.030 s           0.030 s
  | Density mixing                             :        0.003 s           0.003 s
  | Hartree multipole update                   :        0.005 s           0.004 s
  | Hartree multipole summation                :        0.026 s           0.026 s
  | Integration                                :        0.043 s           0.043 s
  | Solution of K.-S. eqns.                    :        0.001 s           0.001 s
  | Total energy evaluation                    :        0.000 s           0.000 s
------------------------------------------------------------

------------------------------------------------------------
          Begin self-consistency iteration #   12

  Date     :  20190722, Time     :  144538.736
------------------------------------------------------------
  Evaluating new KS density.
  Integration grid: deviation in total charge (<rho> - N_e) =  -3.954259E-10
  Pulay mixing of updated and previous charge densities.

  Evaluating partitioned Hartree potential by multipole expansion.
  | Analytical far-field extrapolation by fixed multipoles:
  | Hartree multipole sum: apparent total charge =   0.999996E+00
  Summing up the Hartree potential.
  Time summed over all CPUs for potential: real work        0.098 s, elapsed        0.103 s
  | RMS charge density error from multipole expansion :   0.492780E-03

  Integrating Hamiltonian matrix: batch-based integration.
  Time summed over all CPUs for integration: real work        0.165 s, elapsed        0.166 s

  Updating Kohn-Sham eigenvalues, eigenvectors, occupation numbers, and Fermi level.
  Solving generalized eigenproblem
  Updating Kohn-Sham eigenvalues and eigenfunctions.
  Solving real generalised eigenvalue problem by standard LAPACK (fast)
  Determining occupation numbers for Kohn-Sham eigenstates.
  | Chemical potential (Fermi level) in eV                 : -.17463731E+02
  | Error in electron count due to remaining E_F inaccuracy: -.38639847E-09
  | Maximum occupation number of highest empty state:  0.00E+00

  Highest occupied state (VBM) at    -25.59983252 eV
  | Occupation number:      2.00000000

  Lowest unoccupied state (CBM) at   -17.45896222 eV
  | Occupation number:      0.50002466

  Overall HOMO-LUMO gap:      8.14087031 eV.

  Total energy components:
  | Sum of eigenvalues            :         -89.78791192 Ha       -2443.25339471 eV
  | XC energy correction          :         -16.45092731 Ha        -447.65250853 eV
  | XC potential correction       :          21.14195197 Ha         575.30178403 eV
  | Free-atom electrostatic energy:         -71.52330919 Ha       -1946.24826722 eV
  | Hartree energy correction     :           6.82712778 Ha         185.77559912 eV
  | Entropy correction            :          -0.00016515 Ha          -0.00449404 eV
  | ---------------------------
  | Total energy                  :        -149.79306868 Ha       -4076.07678730 eV
  | Total energy, T -> 0          :        -149.79323383 Ha       -4076.08128134 eV  <-- do not rely on this value for anything but (periodic) metals
[...]
  | Total energy (T->0) per atom                          :       -2038.04064067 eV  <-- do not rely on this value for anything but (periodic) metals
  | Electronic free energy per atom                       :       -2038.04288769 eV

  Self-consistency convergence accuracy:
  | Change of charge density      :  0.1915E-05
  | Change of sum of eigenvalues  : -0.3709E-03 eV
  | Change of total energy        :  0.3558E-10 eV

  Electronic self-consistency reached - switching on the force computation.

  End self-consistency iteration #    12       :  max(cpu_time)    wall_clock(cpu1)
  | Time for this iteration                    :        0.106 s           0.106 s
  | Charge density & force component update    :        0.030 s           0.029 s
  | Density mixing                             :        0.003 s           0.003 s
  | Hartree multipole update                   :        0.004 s           0.003 s
  | Hartree multipole summation                :        0.027 s           0.027 s
  | Integration                                :        0.042 s           0.042 s
  | Solution of K.-S. eqns.                    :        0.001 s           0.001 s
  | Total energy evaluation                    :        0.000 s           0.001 s
------------------------------------------------------------

------------------------------------------------------------
          Begin self-consistency iteration #   13

  Date     :  20190722, Time     :  144538.843
------------------------------------------------------------
  Evaluating new KS density.
  Integration grid: deviation in total charge (<rho> - N_e) =  -3.863185E-10
  Pulay mixing of updated and previous charge densities.

  Evaluating partitioned Hartree potential by multipole expansion.
  | Analytical far-field extrapolation by fixed multipoles:
  | Hartree multipole sum: apparent total charge =   0.999999E+00
  Summing up the Hartree potential.
  Time summed over all CPUs for potential: real work        0.255 s, elapsed        0.257 s
  | RMS charge density error from multipole expansion :   0.492780E-03

  Integrating Hamiltonian matrix: batch-based integration.
  Time summed over all CPUs for integration: real work        0.167 s, elapsed        0.174 s

  Updating Kohn-Sham eigenvalues, eigenvectors, occupation numbers, and Fermi level.
  Solving generalized eigenproblem
  Updating Kohn-Sham eigenvalues and eigenfunctions.
  Solving real generalised eigenvalue problem by standard LAPACK (fast)
  Determining occupation numbers for Kohn-Sham eigenstates.
  | Chemical potential (Fermi level) in eV                 : -.17463752E+02
  | Error in electron count due to remaining E_F inaccuracy: -.37932857E-09
  | Maximum occupation number of highest empty state:  0.00E+00

  Highest occupied state (VBM) at    -25.59985390 eV
  | Occupation number:      2.00000000

  Lowest unoccupied state (CBM) at   -17.45898257 eV
  | Occupation number:      0.50000020

  Overall HOMO-LUMO gap:      8.14087133 eV.

  Total energy components:
  | Sum of eigenvalues            :         -89.78792314 Ha       -2443.25369990 eV
  | XC energy correction          :         -16.45092715 Ha        -447.65250405 eV
  | XC potential correction       :          21.14195177 Ha         575.30177863 eV
  | Free-atom electrostatic energy:         -71.52330919 Ha       -1946.24826722 eV
  | Hartree energy correction     :           6.82713903 Ha         185.77590523 eV
  | Entropy correction            :          -0.00016515 Ha          -0.00449404 eV
  | ---------------------------
  | Total energy                  :        -149.79306868 Ha       -4076.07678730 eV
  | Total energy, T -> 0          :        -149.79323383 Ha       -4076.08128134 eV  <-- do not rely on this value for anything but (periodic) metals
  | Electronic free energy        :        -149.79339899 Ha       -4076.08577538 eV

  Derived energy quantities:
  | Kinetic energy                :         149.44534970 Ha        4066.61487255 eV
  | Electrostatic energy          :        -282.78749124 Ha       -7695.03915581 eV
  | Energy correction for multipole
  | error in Hartree potential    :          -0.00053637 Ha          -0.01459524 eV
  | Sum of eigenvalues per atom                           :       -1221.62684995 eV
  | Total energy (T->0) per atom                          :       -2038.04064067 eV  <-- do not rely on this value for anything but (periodic) metals
  | Electronic free energy per atom                       :       -2038.04288769 eV

  atomic forces [eV/Ang]:
  -----------------------
  atom #    1
   Hellmann-Feynman              : -0.871290E-10  0.373435E-10 -0.153647E+02
   Ionic forces                  :  0.000000E+00  0.000000E+00  0.000000E+00
   Multipole                     : -0.499105E-13 -0.432499E-12 -0.595171E-01
   Pulay + GGA                   :  0.000000E+00  0.000000E+00  0.000000E+00
   ----------------------------------------------------------------
   Total forces(   1)            : -0.871789E-10  0.369110E-10 -0.154242E+02
  atom #    2
   Hellmann-Feynman              :  0.344235E-11 -0.394344E-10  0.153647E+02
   Ionic forces                  :  0.000000E+00  0.000000E+00  0.000000E+00
   Multipole                     : -0.765167E-13  0.146368E-12  0.595171E-01
   Pulay + GGA                   :  0.000000E+00  0.000000E+00  0.000000E+00
   ----------------------------------------------------------------
   Total forces(   2)            :  0.336583E-11 -0.392880E-10  0.154242E+02


  Self-consistency convergence accuracy:
  | Change of charge density      :  0.8539E-05
  | Change of sum of eigenvalues  : -0.3052E-03 eV
  | Change of total energy        :  0.9977E-10 eV
  | Change of forces              :  0.1542E+02 eV/A

  End self-consistency iteration #    13       :  max(cpu_time)    wall_clock(cpu1)
  | Time for this iteration                    :        0.147 s           0.147 s
  | Charge density & force component update    :        0.029 s           0.029 s
  | Density mixing                             :        0.003 s           0.003 s
  | Hartree multipole update                   :        0.005 s           0.004 s
  | Hartree multipole summation                :        0.065 s           0.065 s
  | Integration                                :        0.044 s           0.044 s
  | Solution of K.-S. eqns.                    :        0.001 s           0.001 s
  | Total energy evaluation                    :        0.001 s           0.001 s
------------------------------------------------------------

------------------------------------------------------------
          Begin self-consistency iteration #   14

  Date     :  20190722, Time     :  144538.992
------------------------------------------------------------
  Evaluating new KS density and force components.
  Integration grid: deviation in total charge (<rho> - N_e) =  -3.793676E-10
  Pulay mixing of updated and previous charge densities.

  Evaluating partitioned Hartree potential by multipole expansion.
  | Analytical far-field extrapolation by fixed multipoles:
  | Hartree multipole sum: apparent total charge =   0.999999E+00
  Summing up the Hartree potential.
  Time summed over all CPUs for potential: real work        0.254 s, elapsed        0.256 s
  | RMS charge density error from multipole expansion :   0.492780E-03

  Integrating Hamiltonian matrix: batch-based integration.
  Time summed over all CPUs for integration: real work        0.164 s, elapsed        0.165 s

  Updating Kohn-Sham eigenvalues, eigenvectors, occupation numbers, and Fermi level.
  Solving generalized eigenproblem
  Updating Kohn-Sham eigenvalues and eigenfunctions.
  Solving real generalised eigenvalue problem by standard LAPACK (fast)
  Determining occupation numbers for Kohn-Sham eigenstates.
  | Chemical potential (Fermi level) in eV                 : -.17463752E+02
  | Error in electron count due to remaining E_F inaccuracy: -.37881520E-09
  | Maximum occupation number of highest empty state:  0.00E+00

  Highest occupied state (VBM) at    -25.59985376 eV
  | Occupation number:      2.00000000

  Lowest unoccupied state (CBM) at   -17.45898242 eV
  | Occupation number:      0.50000011

  Overall HOMO-LUMO gap:      8.14087134 eV.

  Total energy components:
  | Sum of eigenvalues            :         -89.78792305 Ha       -2443.25369770 eV
  | XC energy correction          :         -16.45092715 Ha        -447.65250415 eV
  | XC potential correction       :          21.14195177 Ha         575.30177877 eV
  | Free-atom electrostatic energy:         -71.52330919 Ha       -1946.24826722 eV
  | Hartree energy correction     :           6.82713895 Ha         185.77590300 eV
  | Entropy correction            :          -0.00016515 Ha          -0.00449404 eV
  | ---------------------------
  | Total energy                  :        -149.79306868 Ha       -4076.07678730 eV
  | Total energy, T -> 0          :        -149.79323383 Ha       -4076.08128134 eV  <-- do not rely on this value for anything but (periodic) metals
  | Electronic free energy        :        -149.79339899 Ha       -4076.08577538 eV

  Derived energy quantities:
  | Kinetic energy                :         149.44534969 Ha        4066.61487208 eV
  | Electrostatic energy          :        -282.78749121 Ha       -7695.03915523 eV
  | Energy correction for multipole
  | error in Hartree potential    :          -0.00053637 Ha          -0.01459524 eV
  | Sum of eigenvalues per atom                           :       -1221.62684885 eV
  | Total energy (T->0) per atom                          :       -2038.04064067 eV  <-- do not rely on this value for anything but (periodic) metals
  | Electronic free energy per atom                       :       -2038.04288769 eV

  atomic forces [eV/Ang]:
  -----------------------
  atom #    1
   Hellmann-Feynman              : -0.595954E-10  0.147447E-10 -0.153647E+02
   Ionic forces                  :  0.000000E+00  0.000000E+00  0.000000E+00
   Multipole                     : -0.177942E-12 -0.215038E-12 -0.595171E-01
   Pulay + GGA                   :  0.161879E-10 -0.806039E-11  0.156935E+02
   ----------------------------------------------------------------
   Total forces(   1)            : -0.435855E-10  0.646924E-11  0.269270E+00
  atom #    2
   Hellmann-Feynman              :  0.194006E-10 -0.462086E-10  0.153647E+02
   Ionic forces                  :  0.000000E+00  0.000000E+00  0.000000E+00
   Multipole                     : -0.598218E-13  0.125196E-12  0.595171E-01
   Pulay + GGA                   : -0.815245E-11  0.142439E-11 -0.156935E+02
   ----------------------------------------------------------------
   Total forces(   2)            :  0.111883E-10 -0.446590E-10 -0.269270E+00


  Self-consistency convergence accuracy:
  | Change of charge density      :  0.7574E-07
  | Change of sum of eigenvalues  :  0.2192E-05 eV
  | Change of total energy        : -0.1547E-10 eV
  | Change of forces              :  0.8173E-05 eV/A

  Writing Kohn-Sham eigenvalues.

  State    Occupation    Eigenvalue [Ha]    Eigenvalue [eV]
      1       2.00000         -19.412708         -528.24667
      2       2.00000         -19.412496         -528.24090
      3       2.00000          -1.741319          -47.38371
      4       2.00000          -1.152615          -31.36426
      5       2.00000          -0.956621          -26.03098
      6       2.00000          -0.956621          -26.03098
      7       2.00000          -0.940777          -25.59985
      8       0.50000          -0.641606          -17.45898
      9       0.50000          -0.641606          -17.45898
     10       0.00000          -0.184003           -5.00697
     11       0.00000          -0.160781           -4.37507
     12       0.00000          -0.115128           -3.13279
     13       0.00000          -0.115128           -3.13279
     14       0.00000          -0.063116           -1.71748

  Highest occupied state (VBM) at    -25.59985376 eV
  | Occupation number:      2.00000000

  Lowest unoccupied state (CBM) at   -17.45898242 eV
  | Occupation number:      0.50000011

  Overall HOMO-LUMO gap:      8.14087134 eV.

  Self-consistency cycle converged.

  End self-consistency iteration #    14       :  max(cpu_time)    wall_clock(cpu1)
  | Time for this iteration                    :        0.214 s           0.215 s
  | Charge density & force component update    :        0.099 s           0.098 s
  | Density mixing                             :        0.002 s           0.003 s
  | Hartree multipole update                   :        0.005 s           0.004 s
  | Hartree multipole summation                :        0.065 s           0.065 s
  | Integration                                :        0.042 s           0.041 s
  | Solution of K.-S. eqns.                    :        0.001 s           0.001 s
  | Total energy evaluation                    :        0.001 s           0.002 s
------------------------------------------------------------
  Writing cluster restart information to file restart
  ------------------------------------------------------------
   Computing monopole / dipole moments for complete molecule:
  | Total electronic charge [e]         :          0.150000001179702E+02
  | Total ionic charge [e]              :          0.160000000000000E+02
  | Total charge [e]                    :          0.999999882029780E+00
 * Warning: The system has a total charge of      0.99999988 .
 * The dipole moment depends on the choice of the origin.
  | Total dipole moment [eAng]          :          0.392012526187480E-13        -0.256739563797570E-13         0.604999928628013E+00
  | Absolute dipole moment              :          0.604999928628013E+00 eAng              /                   0.290548561484444E+01 Debye  .
  Removing unitary transformations (pure translations, rotations) from forces on atoms.
  Atomic forces before filtering:
  | Net force on center of mass :  -0.323972E-10 -0.381898E-10  0.261897E-10 eV/A
  | Net torque on center of mass:   0.287668E-10  0.308180E-10  0.000000E+00 eV
  Atomic forces after filtering:
  | Net force on center of mass :  -0.519230E-26 -0.519230E-26  0.000000E+00 eV/A
  | Net torque on center of mass:   0.116856E-25  0.116856E-25  0.000000E+00 eV

  Energy and forces in a compact form:
  | Total energy uncorrected      :         -0.407607678730207E+04 eV
  | Total energy corrected        :         -0.407608128134136E+04 eV  <-- do not rely on this value for anything but (periodic) metals
  | Electronic free energy        :         -0.407608577538065E+04 eV
  Total atomic forces (unitary forces cleaned) [eV/Ang]:
  |   1         -0.129807539725224E-25          0.778845238351347E-26          0.269269599920371E+00
  |   2          0.778845238351347E-26         -0.129807539725224E-25         -0.269269599920371E+00

  ------------------------------------ 
  Start decomposition of the XC Energy 
  ------------------------------------ 
  Hartree-Fock part   :          0.000000000 Ha              0.000000000 eV
  ------------------------------------ 
  X Energy            :        -15.947663163 Ha           -433.957994200 eV
  C Energy GGA        :         -0.503263991 Ha            -13.694509952 eV
  Total XC Energy     :        -16.450927153 Ha           -447.652504152 eV
  LDA X and C from self-consistent density 
  X Energy LDA        :        -14.463100162 Ha           -393.560979584 eV
  C Energy LDA        :         -1.061536306 Ha            -28.885872592 eV
  ------------------------------------ 
  End decomposition of the XC Energy 
  ------------------------------------ 

------------------------------------------------------------------------------
  Final output of selected total energy values:

  The following output summarizes some interesting total energy values
  at the end of a run (AFTER all relaxation, molecular dynamics, etc.).

  | Total energy of the DFT / Hartree-Fock s.c.f. calculation      :          -4076.076787302 eV
  | Final zero-broadening corrected energy (caution - metals only) :          -4076.081281341 eV
  | For reference only, the value of 1 Hartree used in FHI-aims is :             27.211384500 eV

  Before relying on these values, please be sure to understand exactly which
  total energy value is referred to by a given number. Different objects may
  all carry the same name 'total energy'. Definitions:

  Total energy of the DFT / Hartree-Fock s.c.f. calculation:
  | Note that this energy does not include ANY quantities calculated after the
  | s.c.f. cycle, in particular not ANY RPA, MP2, etc. many-body perturbation terms.

  Final zero-broadening corrected energy:
  | For metallic systems only, a broadening of the occupation numbers at the Fermi
  | level can be extrapolated back to zero broadening by an electron-gas inspired
  | formula. For all systems that are not real metals, this value can be
  | meaningless and should be avoided.

------------------------------------------------------------------------------
  Methods described in the following list of references were used in this FHI-aims run.
  If you publish the results, please make sure to cite these reference if they apply.
  FHI-aims is an academic code, and for our developers (often, Ph.D. students
  and postdocs), scientific credit in the community is essential.
  Thank you for helping us!

  For any use of FHI-aims, please cite:

    Volker Blum, Ralf Gehrke, Felix Hanke, Paula Havu, Ville Havu,
    Xinguo Ren, Karsten Reuter, and Matthias Scheffler
    'Ab initio molecular simulations with numeric atom-centered orbitals'
    Computer Physics Communications 180, 2175-2196 (2009)
    http://dx.doi.org/10.1016/j.cpc.2009.06.022


  For the real-space grid partitioning and parallelization used in this calculation, please cite:

    Ville Havu, Volker Blum, Paula Havu, and Matthias Scheffler,
    'Efficient O(N) integration for all-electron electronic structure calculation'
    'using numerically tabulated basis functions'
    Journal of Computational Physics 228, 8367-8379 (2009).
    http://dx.doi.org/10.1016/j.jcp.2009.08.008

  Of course, there are many other important community references, e.g., those cited in the
  above references. Our list is limited to references that describe implementations in the
  FHI-aims code. The reason is purely practical (length of this list) - please credit others as well.

------------------------------------------------------------
          Leaving FHI-aims.
          Date     :  20190722, Time     :  144539.245

          Computational steps:
          | Number of self-consistency cycles          :           14

          Detailed time accounting                     :  max(cpu_time)    wall_clock(cpu1)
          | Total time                                 :        2.099 s           2.116 s
          | Preparation time                           :        0.146 s           0.159 s
          | Grid partitioning                          :        0.022 s           0.022 s
          | Preloading free-atom quantities on grid    :        0.017 s           0.018 s
          | Free-atom superposition energy             :        0.009 s           0.009 s
          | Total time for integrations                :        0.699 s           0.694 s
          | Total time for solution of K.-S. equations :        0.029 s           0.032 s
          | Total time for density & force components  :        0.526 s           0.519 s
          | Total time for mixing                      :        0.035 s           0.039 s
          | Total time for Hartree multipole update    :        0.066 s           0.057 s
          | Total time for Hartree multipole sum       :        0.469 s           0.463 s
          | Total time for total energy evaluation     :        0.007 s           0.013 s

          Have a nice day.
------------------------------------------------------------
