  MPI-parallelism will be employed.
------------------------------------------------------------
          Invoking FHI-aims ...
          Version 160328_3
          Compiled on 2019/06/10 at 14:55:49 on host taito-login3.csc.fi.

          When using FHI-aims, please cite the following reference:

          Volker Blum, Ralf Gehrke, Felix Hanke, Paula Havu,
          Ville Havu, Xinguo Ren, Karsten Reuter, and Matthias Scheffler,
          'Ab Initio Molecular Simulations with Numeric Atom-Centered Orbitals',
          Computer Physics Communications 180, 2175-2196 (2009)

          For any questions about FHI-aims, please visit the aimsclub website
          with its forums and wiki. Contributions to both the forums and the
          wiki are warmly encouraged - they are for you, and everyone is welcome there.

------------------------------------------------------------

  Date     :  20190722, Time     :  143450.063
  Time zero on CPU 1             :   0.889850000000000E-01  s.
  Internal wall clock time zero  :           333038090.063  s.

  Using        8 parallel tasks.
  Task        0 on host c635 reporting.
  Task        1 on host c635 reporting.
  Task        2 on host c635 reporting.
  Task        3 on host c635 reporting.
  Task        4 on host c635 reporting.
  Task        5 on host c635 reporting.
  Task        6 on host c635 reporting.
  Task        7 on host c635 reporting.

  Performing system and environment tests:
  | Environment variable OMP_NUM_THREADS correctly set to 1.
  | Maximum stacksize for task 0: unlimited
  | Maximum stacksize for task 1: unlimited
  | Maximum stacksize for task 2: unlimited
  | Maximum stacksize for task 3: unlimited
  | Maximum stacksize for task 4: unlimited
  | Maximum stacksize for task 5: unlimited
  | Maximum stacksize for task 6: unlimited
  | Maximum stacksize for task 7: unlimited
  | Current stacksize for task 0: 1024 [Mb]
  | Current stacksize for task 1: 1024 [Mb]
  | Current stacksize for task 2: 1024 [Mb]
  | Current stacksize for task 3: 1024 [Mb]
  | Current stacksize for task 4: 1024 [Mb]
  | Current stacksize for task 5: 1024 [Mb]
  | Current stacksize for task 6: 1024 [Mb]
  | Current stacksize for task 7: 1024 [Mb]
  | Checking for scalapack...
  | No scalapack compiled in.

  Obtaining array dimensions for all initial allocations:
  
  -----------------------------------------------------------------------
  Parsing control.in (first pass over file, find array dimensions only).
  The contents of control.in will be repeated verbatim below
  unless switched off by setting 'verbatim_writeout .false.' .
  in the first line of control.in .
  -----------------------------------------------------------------------
  
    #  Physical model settings
    #
  
    xc                            pbe
    charge                        0.0
    relativistic                  none
  #  default_initial_moment        0.0
    spin                          none
  #  vdw_correction_hirshfeld
  
    #  SCF convergence settings
    #
  
    sc_accuracy_rho               1E-4
    sc_accuracy_eev               1E-2
    sc_accuracy_etot              1E-8
    sc_iter_limit                 100
  
    #  Occupation settings
    #
  
    restart                       restart
  #  force_occupation_projector      21 1 1.0 20 21 # ion 0
  #  force_occupation_projector      20 1 1.0 20 21 # ion 1
  #  force_occupation_projector      19 1 1.0 18 19 # ion 2
  #  force_occupation_projector      18 1 1.0 18 19 # ion 3
  #  force_occupation_projector      17 1 1.0 17 17 # ion 4
  
    #  Relaxation
    #
  
    ######relax_geometry                bfgs    1.e-4
  
  
  ################################################################################
  #
  #  FHI-aims code project
  #  VB, Fritz-Haber Institut, 2007
  #
  #  Suggested "safe" defaults for O atom (to be pasted into control.in file)
  #
  ################################################################################
    species        O
  #     global species definitions
      nucleus             8
      mass                15.9994
  #
      l_hartree           8
  #
      cut_pot             4.0  2.0  1.0
      basis_dep_cutoff    0.d0
  #
      radial_base         36 7.0
      radial_multiplier   2
       angular_grids specified
        division   0.4087  110
        division   0.5181  194
        division   0.6184  302
        division   0.7315  434
        division   0.7934  590
  #      division   0.9656  770
  #      division   1.4041  974
  #      outer_grid 974
        outer_grid 590
  ################################################################################
  #
  #  Definition of "minimal" basis
  #
  ################################################################################
  #     valence basis states
      valence      2  s   2.
      valence      2  p   4.
  #     ion occupancy
      ion_occ      2  s   1.
      ion_occ      2  p   3.
  ################################################################################
  #
  #  Suggested additional basis functions. For production calculations,
  #  uncomment them one after another (the most important basis functions are
  #  listed first).
  #
  #  Constructed for dimers: 1.0 A, 1.208 A, 1.5 A, 2.0 A, 3.0 A
  #
  ################################################################################
  #  "First tier" - improvements: -699.05 meV to -159.38 meV
       hydro 2 p 1.8
       hydro 3 d 7.6
       hydro 3 s 6.4
  #  "Second tier" - improvements: -49.91 meV to -5.39 meV
       hydro 4 f 11.6
       hydro 3 p 6.2
       hydro 3 d 5.6
       hydro 5 g 17.6
       hydro 1 s 0.75
  #  "Third tier" - improvements: -2.83 meV to -0.50 meV
  #     ionic 2 p auto
  #     hydro 4 f 10.8
  #     hydro 4 d 4.7
  #     hydro 2 s 6.8
  #  "Fourth tier" - improvements: -0.40 meV to -0.12 meV
  #     hydro 3 p 5
  #     hydro 3 s 3.3
  #     hydro 5 g 15.6
  #     hydro 4 f 17.6
  #     hydro 4 d 14
  # Further basis functions - -0.08 meV and below
  #     hydro 3 s 2.1
  #     hydro 4 d 11.6
  #     hydro 3 p 16
  #     hydro 2 s 17.2
  compute_forces .true.
  final_forces_cleaned .true.
  output dipole
  
  -----------------------------------------------------------------------
  Completed first pass over input file control.in .
  -----------------------------------------------------------------------
  
  
  -----------------------------------------------------------------------
  Parsing geometry.in (first pass over file, find array dimensions only).
  The contents of geometry.in will be repeated verbatim below
  unless switched off by setting 'verbatim_writeout .false.' .
  in the first line of geometry.in .
  -----------------------------------------------------------------------
  
  #
  # temporary structure-file for finite-difference calculation of forces
  # displacement   0.0025 of \# atom     0 direction     2
  #
  atom   -0.00000000    0.00000000    0.04485893   O
  atom   -0.00000000    0.00000000    1.16514107   O
  
  -----------------------------------------------------------------------
  Completed first pass over input file geometry.in .
  -----------------------------------------------------------------------
  

  Basic array size parameters:
  | Number of species                 :        1
  | Number of atoms                   :        2
  | Max. basis fn. angular momentum   :        4
  | Max. atomic/ionic basis occupied n:        2
  | Max. number of basis fn. types    :        2
  | Max. radial fns per species/type  :        8
  | Max. logarithmic grid size        :     1301
  | Max. radial integration grid size :       73
  | Max. angular integration grid size:      590
  | Max. angular grid division number :        8
  | Radial grid for Hartree potential :     1301
  | Number of spin channels           :        1

------------------------------------------------------------
          Reading file control.in.
------------------------------------------------------------
  XC: Using PBE gradient-corrected functionals.
  Charge =   0.000000E+00: Neutral system requested explicitly.
  Non-relativistic treatment of kinetic energy.
  Spin treatment: No spin polarisation.
  Convergence accuracy of self-consistent charge density:  0.1000E-03
  Convergence accuracy of sum of eigenvalues:  0.1000E-01
  Convergence accuracy of total energy:  0.1000E-07
  Maximum number of s.-c. iterations  :   100
  Restart file specified as : restart
  | This file does not exist, will create it after the first complete scf cycle.
 
  Reading configuration options for species O                   .
  | Found nuclear charge :   8.0000
  | Found atomic mass :    15.9994000000000      amu
  | Found l_max for Hartree potential  :   8
  | Found cutoff potl. onset [A], width [A], scale factor :    4.00000    2.00000    1.00000
  | Threshold for basis-dependent cutoff potential is   0.000000E+00
  | Found data for basic radial integration grid :    36 points, outermost radius =    7.000 A
  | Found multiplier for basic radial grid :   2
  | Found angular grid specification: user-specified.
  | Specified grid contains     6 separate shells.
  | Check grid settings after all constraints further below.
  | Found free-atom valence shell :  2 s   2.000
  | Found free-atom valence shell :  2 p   4.000
  | No ionic wave fns used. Skipping ion_occ.
  | No ionic wave fns used. Skipping ion_occ.
  | Found hydrogenic basis function :  2 p   1.800
  | Found hydrogenic basis function :  3 d   7.600
  | Found hydrogenic basis function :  3 s   6.400
  | Found hydrogenic basis function :  4 f  11.600
  | Found hydrogenic basis function :  3 p   6.200
  | Found hydrogenic basis function :  3 d   5.600
  | Found hydrogenic basis function :  5 g  17.600
  | Found hydrogenic basis function :  1 s   0.750
  Species O                   : Missing cutoff potential type.
  Defaulting to exp(1/x)/(1-x)^2 type cutoff potential.
  Species O : No 'logarithmic' tag. Using default grid for free atom:
  | Default logarithmic grid data [bohr] : 0.1000E-03 0.1000E+03 0.1012E+01
  Species O : On-site basis accuracy parameter (for Gram-Schmidt orthonormalisation) not specified.
  Using default value basis_acc =  0.1000000E-03.
  Species O                   : Using default innermost maximum threshold i_radial=  2 for radial functions.
  Species O                   : Default cutoff onset for free atom density etc. : 0.40000000E+01 AA.
  Species O                   : Basic radial grid will be enhanced according to radial_multiplier =   2, to contain    73 grid points.
  Forces will be computed.
  Cleaning forces before final output.
  Dipole moment will be written out.
 
  Finished reading input file 'control.in'. Consistency checks are next.
 
  Target number of points in a grid batch is not set. Defaulting to  100
  Method for grid partitioning is not set. Defaulting to parallel hash+maxmin partitioning.
  Batch size limit is not set. Defaulting to    200
  By default, will store active basis functions for each batch.
  If in need of memory, prune_basis_once .false. can be used to disable this option.
  communication_type for Hartree potential was not specified.
  Defaulting to calc_hartree .
  Defaulting to Pulay charge density mixer.
  Pulay mixer: Number of relevant iterations not set.
  Defaulting to    8 iterations.
  Pulay mixer: Number of initial linear mixing iterations not set.
  Defaulting to    0 iterations.
  Work space size for distributed Hartree potential not set.
  Defaulting to   0.200000E+03 MB.
  Mixing parameter for charge density mixing has not been set.
  Using default: charge_mix_param =     0.2000.
  Algorithm-dependent basis array size parameters:
  | n_max_pulay                         :        8
  Geometry relaxation not requested: no relaxation will be performed.
  Force calculation: scf convergence accuracy of forces not set.
  Defaulting to  0.1000E-03 eV/A.
  Handling of forces: Unphysical translation and rotation will be removed from forces.
  No accuracy limit for integral partition fn. given. Defaulting to  0.1000E-14.
  No threshold value for u(r) in integrations given. Defaulting to  0.1000E-05.
  No occupation type (smearing scheme) given. Defaulting to Gaussian broadening, width =  0.1000E-01 eV.
  No accuracy for occupation numbers given. Defaulting to  0.1000E-07.
  No threshold value for occupation numbers given. Defaulting to  0.0000E+00.
  No accuracy for fermi level given. Defaulting to  0.1000E-19.
  Maximum # of iterations to find E_F not set. Defaulting to  200.
  Preferred method for the eigenvalue solver ('KS_method') not specified in 'control.in'.
  Calling blacs routine to test compilation state
  The best choice would be 'elpa', but your version of FHI-aims is compiled without scalapack support.
  Defaulting to 'lapack_fast' instead (serial solution, time will not improve with more CPUs).
  Will not use alltoall communication since running on < 1024 CPUs.
  Threshold for basis singularities not set.
  Default threshold for basis singularities:  0.1000E-04
  partition_type (choice of integration weights) for integrals was not specified.
  | Using a version of the partition function of Stratmann and coworkers ('stratmann_smoother').
  | At each grid point, the set of atoms used to build the partition table is smoothly restricted to
  | only those atoms whose free-atom density would be non-zero at that grid point.
  Partitioning for Hartree potential was not defined. Using partition_type for integrals.
  | Adjusted default value of keyword multip_moments_threshold to:       0.10000000E-11
  | This value may affect high angular momentum components of the Hartree potential in periodic systems.
  No q(lm)/r^(l+1) cutoff set for long-range Hartree potential.
  | Using default value of  0.100000E-09 .
  | Verify using the multipole_threshold keyword.
  Defaulting to new monopole extrapolation.
  Density update method: automatic selection selected.
------------------------------------------------------------


------------------------------------------------------------
          Reading geometry description geometry.in.
------------------------------------------------------------
  Input structure read successfully.
  The structure contains        2 atoms,  and a total of         16.000 electrons.

  Input geometry:
  | No unit cell requested.
  | Atomic structure:
  |       Atom                x [A]            y [A]            z [A]
  |    1: Species O              0.000000         0.000000         0.044859
  |    2: Species O              0.000000         0.000000         1.165141
  |

  | The smallest distance between any two atoms is         1.12028214 AA.
  |
  | The first atom of this pair is atom number                      1 .
  | The second atom of this pair is atom number                     2 .

  Number of empty states per atom not set in control.in - providing a guess from actual geometry.
  | Total number of empty states used during s.c.f. cycle:        6
  If you use a very high smearing, use empty_states (per atom!) in control.in to increase this value.

  Structure-dependent array size parameters: 
  | Maximum number of distinct radial functions  :       11
  | Maximum number of basis functions            :       78
  | Number of Kohn-Sham states (occupied + empty):       14
------------------------------------------------------------

------------------------------------------------------------
          Preparing all fixed parts of the calculation.
------------------------------------------------------------
  Determining machine precision:
    2.225073858507201E-308
  Setting up grids for atomic and cluster calculations.

  Creating wave function, potential, and density for free atoms.

  Species: O

  List of occupied orbitals and eigenvalues:
    n    l              occ      energy [Ha]    energy [eV]
    1    0           2.0000       -18.898576      -514.2564
    2    0           2.0000        -0.878795       -23.9132
    2    1           4.0000        -0.332075        -9.0362

  Creating fixed part of basis set: Ionic, confined, hydrogenic.
 
  O                    hydrogenic:
 
  List of hydrogenic basis orbitals: 
    n    l      effective z      eigenvalue [eV]  inner max. [A]     outer max. [A]     outer radius [A]   
    2    1         1.800000       -11.0118           1.178562           1.178562           5.432602
    3    2         7.600000       -87.3183           0.624125           0.624125           4.634338
    3    0         6.400000       -61.9210           0.061167           1.081902           5.110480
    4    3        11.600000      -114.4239           0.731631           0.731631           4.522403
    3    1         6.200000       -58.1114           0.255680           1.030270           5.110480
    3    2         5.600000       -47.4083           0.847233           0.847233           5.173339
    5    4        17.600000      -168.5800           0.749740           0.749740           4.051222
    1    0         0.750000        -7.6499           0.705284           0.705284           5.366593
 

  Adding cutoff potential to free-atom effective potential.
  Creating atomic-like basis functions for current effective potential.

  Species O                   :

  List of atomic basis orbitals and eigenvalues:
    n    l      energy [Ha]    energy [eV]    outer radius [A]
    1    0       -18.898576      -514.2564       1.415765
    2    0        -0.878795       -23.9132       5.048385
    2    1        -0.332075        -9.0362       5.301386

  Assembling full basis from fixed parts.
  | Species O :   atomic orbital   1 s accepted.
  | Species O :   atomic orbital   2 s accepted.
  | Species O :    hydro orbital   3 s accepted.
  | Species O :    hydro orbital   1 s accepted.
  | Species O :   atomic orbital   2 p accepted.
  | Species O :    hydro orbital   2 p accepted.
  | Species O :    hydro orbital   3 p accepted.
  | Species O :    hydro orbital   3 d accepted.
  | Species O :    hydro orbital   3 d accepted.
  | Species O :    hydro orbital   4 f accepted.
  | Species O :    hydro orbital   5 g accepted.
 
  Basis size parameters after reduction:
  | Total number of radial functions:       11
  | Total number of basis functions :       78
 
  Testing on-site integration grid accuracy.
  |  Species  Function  <phi|h_atom|phi> (log., in eV)  <phi|h_atom|phi> (rad., in eV)
           1        1               -514.2564144315               -514.2564099626
           1        2                -23.9132357102                -23.9132356433
           1        3                 17.5398579759                 17.5398338425
           1        4                 14.5207278950                 14.5207740449
           1        5                 -9.0362392718                 -9.0362394845
           1        6                  7.9056275927                  7.9056237490
           1        7                 33.4201658992                 33.4201612015
           1        8                 45.8231952720                 45.8231953152
           1        9                 52.1937595491                 52.1937593440
           1       10                 85.4062894308                 85.4062894578
           1       11                142.0975701139                142.0975701391

  Preparing densities etc. for the partition functions (integrals / Hartree potential).

  Preparations completed.
  max(cpu_time)          :      0.156 s.
  Wall clock time (cpu1) :      0.161 s.
------------------------------------------------------------

------------------------------------------------------------
          Begin self-consistency loop: Initialization.

          Date     :  20190722, Time     :  143450.254
------------------------------------------------------------

  Initializing index lists of integration centers etc. from given atomic structure:
  | Number of centers in hartree potential         :         2
  | Number of centers in hartree multipole         :         2
  | Number of centers in electron density summation:         2
  | Number of centers in basis integrals           :         2
  | Number of centers in integrals                 :         2
  | Number of centers in hamiltonian               :         2
  Partitioning the integration grid into batches with parallel hashing+maxmin method.
  | Number of batches:      839
  | Maximal batch size:     119
  | Minimal batch size:      49
  | Average batch size:      63.480
  | Standard deviation of batch sizes:      18.159

  Integration load balanced across     8 MPI tasks.
  Work distribution over tasks is as follows:
  Task     0 has       6626 integration points.
  Task     1 has       6642 integration points.
  Task     2 has       6625 integration points.
  Task     3 has       6716 integration points.
  Task     4 has       6688 integration points.
  Task     5 has       6623 integration points.
  Task     6 has       6639 integration points.
  Task     7 has       6701 integration points.
  Initializing partition tables, free-atom densities, potentials, etc. across the integration grid (initialize_grid_storage).
  | initialize_grid_storage: Actual outermost partition radius vs. multipole_radius_free
  | (-- VB: in principle, multipole_radius_free should be larger, hence this output)
  | Species        1: Confinement radius =              6.000000000000000 AA, multipole_radius_free =              6.064445521808699 AA.
  | Species        1: outer_partition_radius set to              6.064445521808699 AA .
  | Original list of interatomic distances with           2 x          2 entries is created.
  | Net number of integration points:    53260
  | of which are non-zero points    :    49986
  Obtaining max. number of non-zero basis functions in each batch (get_n_compute_maxes).
  | Maximal number of non-zero basis functions:       78 in task     0
  | Maximal number of non-zero basis functions:       78 in task     1
  | Maximal number of non-zero basis functions:       78 in task     2
  | Maximal number of non-zero basis functions:       78 in task     3
  | Maximal number of non-zero basis functions:       78 in task     4
  | Maximal number of non-zero basis functions:       78 in task     5
  | Maximal number of non-zero basis functions:       78 in task     6
  | Maximal number of non-zero basis functions:       78 in task     7
  Selecting the method for density update.
  Loop over occupied states selected for charge density update.
  Integrating Hamiltonian matrix: batch-based integration.
  Time summed over all CPUs for integration: real work        0.184 s, elapsed        0.194 s
  Integrating overlap matrix.
  Time summed over all CPUs for integration: real work        0.067 s, elapsed        0.070 s

  Updating Kohn-Sham eigenvalues, eigenvectors, occupation numbers, and Fermi level.
  Solving generalized eigenproblem
  Updating Kohn-Sham eigenvalues and eigenfunctions.
  Transforming overlap matrix and checking for singularities.
  Overlap matrix is nonsingular:
  | Lowest eigenvalue:  0.183633E-03
  Solving real generalised eigenvalue problem by standard LAPACK (fast)
  Determining occupation numbers for Kohn-Sham eigenstates.
  | Chemical potential (Fermi level) in eV                 : -.60286272E+01
  | Error in electron count due to remaining E_F inaccuracy: 0.14017445E-08
  | Maximum occupation number of highest empty state:  0.00E+00

  Writing Kohn-Sham eigenvalues.

  State    Occupation    Eigenvalue [Ha]    Eigenvalue [eV]
      1       2.00000         -18.953773         -515.75841
      2       2.00000         -18.953550         -515.75233
      3       2.00000          -1.281827          -34.88030
      4       2.00000          -0.748930          -20.37943
      5       2.00000          -0.543860          -14.79919
      6       2.00000          -0.528900          -14.39209
      7       2.00000          -0.528900          -14.39209
      8       1.00000          -0.221548           -6.02863
      9       1.00000          -0.221548           -6.02863
     10       0.00000           0.089712            2.44118
     11       0.00000           0.095772            2.60609
     12       0.00000           0.127326            3.46472
     13       0.00000           0.127326            3.46472
     14       0.00000           0.201993            5.49651

  Highest occupied state (VBM) at     -6.02862722 eV
  | Occupation number:      1.00000000

  Lowest unoccupied state (CBM) at     2.44118142 eV
  | Occupation number:      0.00000000

  Overall HOMO-LUMO gap:      8.46980864 eV.
  Calculating total energy contributions from superposition of free atom densities.

  Total energy components:
  | Sum of eigenvalues            :         -83.52257513 Ha       -2272.76490640 eV
  | XC energy correction          :         -16.82262263 Ha        -457.76685280 eV
  | XC potential correction       :          21.62973536 Ha         588.57504544 eV
  | Free-atom electrostatic energy:         -71.49643139 Ha       -1945.51688498 eV
  | Hartree energy correction     :           0.00000000 Ha           0.00000000 eV
  | Entropy correction            :          -0.00020734 Ha          -0.00564190 eV
  | ---------------------------
  | Total energy                  :        -150.21189380 Ha       -4087.47359875 eV
  | Total energy, T -> 0          :        -150.21210114 Ha       -4087.47924064 eV  <-- do not rely on this value for anything but (periodic) metals
  | Electronic free energy        :        -150.21230847 Ha       -4087.48488254 eV

  Derived energy quantities:
  | Kinetic energy                :         149.92798798 Ha        4079.74812819 eV
  | Electrostatic energy          :        -283.31725915 Ha       -7709.45487414 eV
  | Energy correction for multipole
  | error in Hartree potential    :           0.00000000 Ha           0.00000000 eV
  | Sum of eigenvalues per atom                           :       -1136.38245320 eV
  | Total energy (T->0) per atom                          :       -2043.73962032 eV  <-- do not rely on this value for anything but (periodic) metals
  | Electronic free energy per atom                       :       -2043.74244127 eV
  Initialize hartree_potential_storage
  Max. number of atoms included in rho_multipole:            2

  End scf initialization - timings             :  max(cpu_time)    wall_clock(cpu1)
  | Time for scf. initialization               :        0.098 s           0.098 s
  | Boundary condition initialization          :        0.001 s           0.001 s
  | Integration                                :        0.035 s           0.035 s
  | Solution of K.-S. eqns.                    :        0.009 s           0.010 s
  | Grid partitioning                          :        0.019 s           0.019 s
  | Preloading free-atom quantities on grid    :        0.018 s           0.018 s
  | Free-atom superposition energy             :        0.005 s           0.004 s
  | Total energy evaluation                    :        0.001 s           0.002 s
------------------------------------------------------------

------------------------------------------------------------
          Begin self-consistency iteration #    1

  Date     :  20190722, Time     :  143450.354
------------------------------------------------------------
  Evaluating new KS density.
  Integration grid: deviation in total charge (<rho> - N_e) =   1.401780E-09
  Pulay mixing of updated and previous charge densities.

  Evaluating partitioned Hartree potential by multipole expansion.
  | Analytical far-field extrapolation by fixed multipoles:
  | Hartree multipole sum: apparent total charge =  -0.551649E-07
  Summing up the Hartree potential.
  Time summed over all CPUs for potential: real work        0.118 s, elapsed        0.124 s
  | RMS charge density error from multipole expansion :   0.121037E-03

  Integrating Hamiltonian matrix: batch-based integration.
  Time summed over all CPUs for integration: real work        0.174 s, elapsed        0.180 s

  Updating Kohn-Sham eigenvalues, eigenvectors, occupation numbers, and Fermi level.
  Solving generalized eigenproblem
  Updating Kohn-Sham eigenvalues and eigenfunctions.
  Solving real generalised eigenvalue problem by standard LAPACK (fast)
  Determining occupation numbers for Kohn-Sham eigenstates.
  | Chemical potential (Fermi level) in eV                 : -.56589922E+01
  | Error in electron count due to remaining E_F inaccuracy: -.50288662E-11
  | Maximum occupation number of highest empty state:  0.00E+00

  Writing Kohn-Sham eigenvalues.

  State    Occupation    Eigenvalue [Ha]    Eigenvalue [eV]
      1       2.00000         -18.925864         -514.99896
      2       2.00000         -18.925639         -514.99285
      3       2.00000          -1.274588          -34.68330
      4       2.00000          -0.731800          -19.91330
      5       2.00000          -0.526442          -14.32520
      6       2.00000          -0.518458          -14.10797
      7       2.00000          -0.518458          -14.10797
      8       1.00000          -0.207964           -5.65899
      9       1.00000          -0.207964           -5.65899
     10       0.00000           0.092694            2.52234
     11       0.00000           0.099165            2.69840
     12       0.00000           0.129301            3.51847
     13       0.00000           0.129301            3.51847
     14       0.00000           0.204421            5.56257

  Highest occupied state (VBM) at     -5.65899219 eV
  | Occupation number:      1.00000000

  Lowest unoccupied state (CBM) at    -5.65899219 eV
  | Occupation number:      1.00000000

  Overall HOMO-LUMO gap:      0.00000000 eV.

  Total energy components:
  | Sum of eigenvalues            :         -83.25842827 Ha       -2265.57710444 eV
  | XC energy correction          :         -16.85908778 Ha        -458.75911983 eV
  | XC potential correction       :          21.67726295 Ha         589.86833695 eV
  | Free-atom electrostatic energy:         -71.49643139 Ha       -1945.51688498 eV
  | Hartree energy correction     :          -0.26873040 Ha          -7.31252620 eV
  | Entropy correction            :          -0.00020734 Ha          -0.00564190 eV
  | ---------------------------
  | Total energy                  :        -150.20541489 Ha       -4087.29729850 eV
  | Total energy, T -> 0          :        -150.20562222 Ha       -4087.30294040 eV  <-- do not rely on this value for anything but (periodic) metals
  | Electronic free energy        :        -150.20582956 Ha       -4087.30858230 eV

  Derived energy quantities:
  | Kinetic energy                :         150.13528931 Ha        4085.38908449 eV
  | Electrostatic energy          :        -283.48161642 Ha       -7713.92726316 eV
  | Energy correction for multipole
  | error in Hartree potential    :          -0.00015399 Ha          -0.00419040 eV
  | Sum of eigenvalues per atom                           :       -1132.78855222 eV
  | Total energy (T->0) per atom                          :       -2043.65147020 eV  <-- do not rely on this value for anything but (periodic) metals
  | Electronic free energy per atom                       :       -2043.65429115 eV

  Self-consistency convergence accuracy:
  | Change of charge density      :  0.1780E+00
  | Change of sum of eigenvalues  :  0.7188E+01 eV
  | Change of total energy        :  0.1763E+00 eV

  End self-consistency iteration #     1       :  max(cpu_time)    wall_clock(cpu1)
  | Time for this iteration                    :        0.071 s           0.069 s
  | Charge density update                      :        0.019 s           0.017 s
  | Density mixing                             :        0.001 s           0.001 s
  | Hartree multipole update                   :        0.005 s           0.004 s
  | Hartree multipole summation                :        0.017 s           0.018 s
  | Integration                                :        0.023 s           0.023 s
  | Solution of K.-S. eqns.                    :        0.001 s           0.001 s
  | Total energy evaluation                    :        0.000 s           0.001 s
------------------------------------------------------------

------------------------------------------------------------
          Begin self-consistency iteration #    2

  Date     :  20190722, Time     :  143450.426
------------------------------------------------------------
  Evaluating new KS density.
  Integration grid: deviation in total charge (<rho> - N_e) =  -5.096368E-12
  Pulay mixing of updated and previous charge densities.

  Evaluating partitioned Hartree potential by multipole expansion.
  | Analytical far-field extrapolation by fixed multipoles:
  | Hartree multipole sum: apparent total charge =  -0.160940E-06
  Summing up the Hartree potential.
  Time summed over all CPUs for potential: real work        0.113 s, elapsed        0.118 s
  | RMS charge density error from multipole expansion :   0.440522E-03

  Integrating Hamiltonian matrix: batch-based integration.
  Time summed over all CPUs for integration: real work        0.173 s, elapsed        0.180 s

  Updating Kohn-Sham eigenvalues, eigenvectors, occupation numbers, and Fermi level.
  Solving generalized eigenproblem
  Updating Kohn-Sham eigenvalues and eigenfunctions.
  Solving real generalised eigenvalue problem by standard LAPACK (fast)
  Determining occupation numbers for Kohn-Sham eigenstates.
  | Chemical potential (Fermi level) in eV                 : -.49302791E+01
  | Error in electron count due to remaining E_F inaccuracy: 0.85265128E-13
  | Maximum occupation number of highest empty state:  0.00E+00

  Highest occupied state (VBM) at     -4.93027913 eV
  | Occupation number:      1.00000000

  Lowest unoccupied state (CBM) at    -4.93027913 eV
  | Occupation number:      1.00000000

  Overall HOMO-LUMO gap:      0.00000000 eV.

  Total energy components:
  | Sum of eigenvalues            :         -82.74912766 Ha       -2251.71832968 eV
  | XC energy correction          :         -16.93382266 Ha        -460.79275935 eV
  | XC potential correction       :          21.77457692 Ha         592.51638476 eV
  | Free-atom electrostatic energy:         -71.49643139 Ha       -1945.51688498 eV
  | Hartree energy correction     :          -0.79552963 Ha         -21.64746257 eV
  | Entropy correction            :          -0.00020734 Ha          -0.00564190 eV
  | ---------------------------
  | Total energy                  :        -150.20033442 Ha       -4087.15905183 eV
  | Total energy, T -> 0          :        -150.20054175 Ha       -4087.16469372 eV  <-- do not rely on this value for anything but (periodic) metals
  | Electronic free energy        :        -150.20074909 Ha       -4087.17033562 eV

  Derived energy quantities:
  | Kinetic energy                :         150.47177828 Ha        4094.54541531 eV
  | Electrostatic energy          :        -283.73829004 Ha       -7720.91170778 eV
  | Energy correction for multipole
  | error in Hartree potential    :          -0.00050840 Ha          -0.01383419 eV
  | Sum of eigenvalues per atom                           :       -1125.85916484 eV
  | Total energy (T->0) per atom                          :       -2043.58234686 eV  <-- do not rely on this value for anything but (periodic) metals
  | Electronic free energy per atom                       :       -2043.58516781 eV

  Self-consistency convergence accuracy:
  | Change of charge density      :  0.1272E+00
  | Change of sum of eigenvalues  :  0.1386E+02 eV
  | Change of total energy        :  0.1382E+00 eV

  End self-consistency iteration #     2       :  max(cpu_time)    wall_clock(cpu1)
  | Time for this iteration                    :        0.063 s           0.062 s
  | Charge density update                      :        0.016 s           0.016 s
  | Density mixing                             :        0.002 s           0.001 s
  | Hartree multipole update                   :        0.004 s           0.004 s
  | Hartree multipole summation                :        0.016 s           0.016 s
  | Integration                                :        0.023 s           0.023 s
  | Solution of K.-S. eqns.                    :        0.001 s           0.001 s
  | Total energy evaluation                    :        0.000 s           0.001 s
------------------------------------------------------------

------------------------------------------------------------
          Begin self-consistency iteration #    3

  Date     :  20190722, Time     :  143450.490
------------------------------------------------------------
  Evaluating new KS density.
  Integration grid: deviation in total charge (<rho> - N_e) =  -9.237056E-14
  Pulay mixing of updated and previous charge densities.

  Evaluating partitioned Hartree potential by multipole expansion.
  | Analytical far-field extrapolation by fixed multipoles:
  | Hartree multipole sum: apparent total charge =  -0.246633E-06
  Summing up the Hartree potential.
  Time summed over all CPUs for potential: real work        0.113 s, elapsed        0.117 s
  | RMS charge density error from multipole expansion :   0.608415E-03

  Integrating Hamiltonian matrix: batch-based integration.
  Time summed over all CPUs for integration: real work        0.173 s, elapsed        0.180 s

  Updating Kohn-Sham eigenvalues, eigenvectors, occupation numbers, and Fermi level.
  Solving generalized eigenproblem
  Updating Kohn-Sham eigenvalues and eigenfunctions.
  Solving real generalised eigenvalue problem by standard LAPACK (fast)
  Determining occupation numbers for Kohn-Sham eigenstates.
  | Chemical potential (Fermi level) in eV                 : -.51136594E+01
  | Error in electron count due to remaining E_F inaccuracy: 0.76487439E-09
  | Maximum occupation number of highest empty state:  0.00E+00

  Highest occupied state (VBM) at     -5.11365941 eV
  | Occupation number:      1.00000006

  Lowest unoccupied state (CBM) at    -5.11365941 eV
  | Occupation number:      0.99999995

  Overall HOMO-LUMO gap:      0.00000000 eV.

  Total energy components:
  | Sum of eigenvalues            :         -82.91617173 Ha       -2256.26383023 eV
  | XC energy correction          :         -16.91457923 Ha        -460.26911903 eV
  | XC potential correction       :          21.74928287 Ha         591.82809886 eV
  | Free-atom electrostatic energy:         -71.49643139 Ha       -1945.51688498 eV
  | Hartree energy correction     :          -0.62237268 Ha         -16.93562241 eV
  | Entropy correction            :          -0.00020734 Ha          -0.00564190 eV
  | ---------------------------
  | Total energy                  :        -150.20027216 Ha       -4087.15735780 eV
  | Total energy, T -> 0          :        -150.20047950 Ha       -4087.16299969 eV  <-- do not rely on this value for anything but (periodic) metals
  | Electronic free energy        :        -150.20068683 Ha       -4087.16864159 eV

  Derived energy quantities:
  | Kinetic energy                :         150.20336468 Ha        4087.24150940 eV
  | Electrostatic energy          :        -283.48905761 Ha       -7714.12974816 eV
  | Energy correction for multipole
  | error in Hartree potential    :          -0.00056848 Ha          -0.01546905 eV
  | Sum of eigenvalues per atom                           :       -1128.13191512 eV
  | Total energy (T->0) per atom                          :       -2043.58149985 eV  <-- do not rely on this value for anything but (periodic) metals
  | Electronic free energy per atom                       :       -2043.58432079 eV

  Self-consistency convergence accuracy:
  | Change of charge density      :  0.3313E-01
  | Change of sum of eigenvalues  : -0.4546E+01 eV
  | Change of total energy        :  0.1694E-02 eV

  End self-consistency iteration #     3       :  max(cpu_time)    wall_clock(cpu1)
  | Time for this iteration                    :        0.061 s           0.062 s
  | Charge density update                      :        0.016 s           0.016 s
  | Density mixing                             :        0.001 s           0.002 s
  | Hartree multipole update                   :        0.004 s           0.003 s
  | Hartree multipole summation                :        0.016 s           0.016 s
  | Integration                                :        0.023 s           0.023 s
  | Solution of K.-S. eqns.                    :        0.001 s           0.001 s
  | Total energy evaluation                    :        0.000 s           0.001 s
------------------------------------------------------------

------------------------------------------------------------
          Begin self-consistency iteration #    4

  Date     :  20190722, Time     :  143450.556
------------------------------------------------------------
  Evaluating new KS density.
  Integration grid: deviation in total charge (<rho> - N_e) =   7.649206E-10
  Pulay mixing of updated and previous charge densities.

  Evaluating partitioned Hartree potential by multipole expansion.
  | Analytical far-field extrapolation by fixed multipoles:
  | Hartree multipole sum: apparent total charge =  -0.251721E-06
  Summing up the Hartree potential.
  Time summed over all CPUs for potential: real work        0.113 s, elapsed        0.117 s
  | RMS charge density error from multipole expansion :   0.641764E-03

  Integrating Hamiltonian matrix: batch-based integration.
  Time summed over all CPUs for integration: real work        0.173 s, elapsed        0.180 s

  Updating Kohn-Sham eigenvalues, eigenvectors, occupation numbers, and Fermi level.
  Solving generalized eigenproblem
  Updating Kohn-Sham eigenvalues and eigenfunctions.
  Solving real generalised eigenvalue problem by standard LAPACK (fast)
  Determining occupation numbers for Kohn-Sham eigenstates.
  | Chemical potential (Fermi level) in eV                 : -.50176805E+01
  | Error in electron count due to remaining E_F inaccuracy: -.28990144E-11
  | Maximum occupation number of highest empty state:  0.00E+00

  Highest occupied state (VBM) at     -5.01768055 eV
  | Occupation number:      1.00000194

  Lowest unoccupied state (CBM) at    -5.01768052 eV
  | Occupation number:      0.99999806

  Overall HOMO-LUMO gap:      0.00000003 eV.

  Total energy components:
  | Sum of eigenvalues            :         -82.84324594 Ha       -2254.27941863 eV
  | XC energy correction          :         -16.92297605 Ha        -460.49760826 eV
  | XC potential correction       :          21.76024900 Ha         592.12650228 eV
  | Free-atom electrostatic energy:         -71.49643139 Ha       -1945.51688498 eV
  | Hartree energy correction     :          -0.69785126 Ha         -18.98949885 eV
  | Entropy correction            :          -0.00020734 Ha          -0.00564190 eV
  | ---------------------------
  | Total energy                  :        -150.20025565 Ha       -4087.15690845 eV
  | Total energy, T -> 0          :        -150.20046298 Ha       -4087.16255035 eV  <-- do not rely on this value for anything but (periodic) metals
  | Electronic free energy        :        -150.20067032 Ha       -4087.16819224 eV

  Derived energy quantities:
  | Kinetic energy                :         150.25334188 Ha        4088.60145833 eV
  | Electrostatic energy          :        -283.53062148 Ha       -7715.26075853 eV
  | Energy correction for multipole
  | error in Hartree potential    :          -0.00060287 Ha          -0.01640488 eV
  | Sum of eigenvalues per atom                           :       -1127.13970932 eV
  | Total energy (T->0) per atom                          :       -2043.58127517 eV  <-- do not rely on this value for anything but (periodic) metals
  | Electronic free energy per atom                       :       -2043.58409612 eV

  Self-consistency convergence accuracy:
  | Change of charge density      :  0.7602E-02
  | Change of sum of eigenvalues  :  0.1984E+01 eV
  | Change of total energy        :  0.4493E-03 eV

  End self-consistency iteration #     4       :  max(cpu_time)    wall_clock(cpu1)
  | Time for this iteration                    :        0.062 s           0.061 s
  | Charge density update                      :        0.016 s           0.015 s
  | Density mixing                             :        0.001 s           0.001 s
  | Hartree multipole update                   :        0.004 s           0.004 s
  | Hartree multipole summation                :        0.016 s           0.015 s
  | Integration                                :        0.023 s           0.023 s
  | Solution of K.-S. eqns.                    :        0.001 s           0.001 s
  | Total energy evaluation                    :        0.000 s           0.000 s
------------------------------------------------------------

------------------------------------------------------------
          Begin self-consistency iteration #    5

  Date     :  20190722, Time     :  143450.619
------------------------------------------------------------
  Evaluating new KS density.
  Integration grid: deviation in total charge (<rho> - N_e) =  -2.900791E-12
  Pulay mixing of updated and previous charge densities.

  Evaluating partitioned Hartree potential by multipole expansion.
  | Analytical far-field extrapolation by fixed multipoles:
  | Hartree multipole sum: apparent total charge =  -0.253559E-06
  Summing up the Hartree potential.
  Time summed over all CPUs for potential: real work        0.113 s, elapsed        0.117 s
  | RMS charge density error from multipole expansion :   0.650036E-03

  Integrating Hamiltonian matrix: batch-based integration.
  Time summed over all CPUs for integration: real work        0.172 s, elapsed        0.180 s

  Updating Kohn-Sham eigenvalues, eigenvectors, occupation numbers, and Fermi level.
  Solving generalized eigenproblem
  Updating Kohn-Sham eigenvalues and eigenfunctions.
  Solving real generalised eigenvalue problem by standard LAPACK (fast)
  Determining occupation numbers for Kohn-Sham eigenstates.
  | Chemical potential (Fermi level) in eV                 : -.50570116E+01
  | Error in electron count due to remaining E_F inaccuracy: 0.85265128E-13
  | Maximum occupation number of highest empty state:  0.00E+00

  Highest occupied state (VBM) at     -5.05701180 eV
  | Occupation number:      1.00002414

  Lowest unoccupied state (CBM) at    -5.05701137 eV
  | Occupation number:      0.99997586

  Overall HOMO-LUMO gap:      0.00000043 eV.

  Total energy components:
  | Sum of eigenvalues            :         -82.87407865 Ha       -2255.11841927 eV
  | XC energy correction          :         -16.91869331 Ha        -460.38106883 eV
  | XC potential correction       :          21.75465114 Ha         591.97417686 eV
  | Free-atom electrostatic energy:         -71.49643139 Ha       -1945.51688498 eV
  | Hartree energy correction     :          -0.66569050 Ha         -18.11436026 eV
  | Entropy correction            :          -0.00020734 Ha          -0.00564190 eV
  | ---------------------------
  | Total energy                  :        -150.20024271 Ha       -4087.15655649 eV
  | Total energy, T -> 0          :        -150.20045005 Ha       -4087.16219839 eV  <-- do not rely on this value for anything but (periodic) metals
  | Electronic free energy        :        -150.20065739 Ha       -4087.16784028 eV

  Derived energy quantities:
  | Kinetic energy                :         150.21800522 Ha        4087.63989896 eV
  | Electrostatic energy          :        -283.49955463 Ha       -7714.41538663 eV
  | Energy correction for multipole
  | error in Hartree potential    :          -0.00059824 Ha          -0.01627895 eV
  | Sum of eigenvalues per atom                           :       -1127.55920964 eV
  | Total energy (T->0) per atom                          :       -2043.58109919 eV  <-- do not rely on this value for anything but (periodic) metals
  | Electronic free energy per atom                       :       -2043.58392014 eV

  Self-consistency convergence accuracy:
  | Change of charge density      :  0.4981E-02
  | Change of sum of eigenvalues  : -0.8390E+00 eV
  | Change of total energy        :  0.3520E-03 eV

  End self-consistency iteration #     5       :  max(cpu_time)    wall_clock(cpu1)
  | Time for this iteration                    :        0.062 s           0.062 s
  | Charge density update                      :        0.016 s           0.016 s
  | Density mixing                             :        0.001 s           0.001 s
  | Hartree multipole update                   :        0.004 s           0.004 s
  | Hartree multipole summation                :        0.016 s           0.015 s
  | Integration                                :        0.023 s           0.023 s
  | Solution of K.-S. eqns.                    :        0.001 s           0.002 s
  | Total energy evaluation                    :        0.000 s           0.001 s
------------------------------------------------------------

------------------------------------------------------------
          Begin self-consistency iteration #    6

  Date     :  20190722, Time     :  143450.683
------------------------------------------------------------
  Evaluating new KS density.
  Integration grid: deviation in total charge (<rho> - N_e) =   1.065814E-13
  Pulay mixing of updated and previous charge densities.

  Evaluating partitioned Hartree potential by multipole expansion.
  | Analytical far-field extrapolation by fixed multipoles:
  | Hartree multipole sum: apparent total charge =  -0.251658E-06
  Summing up the Hartree potential.
  Time summed over all CPUs for potential: real work        0.112 s, elapsed        0.117 s
  | RMS charge density error from multipole expansion :   0.651411E-03

  Integrating Hamiltonian matrix: batch-based integration.
  Time summed over all CPUs for integration: real work        0.172 s, elapsed        0.180 s

  Updating Kohn-Sham eigenvalues, eigenvectors, occupation numbers, and Fermi level.
  Solving generalized eigenproblem
  Updating Kohn-Sham eigenvalues and eigenfunctions.
  Solving real generalised eigenvalue problem by standard LAPACK (fast)
  Determining occupation numbers for Kohn-Sham eigenstates.
  | Chemical potential (Fermi level) in eV                 : -.50591618E+01
  | Error in electron count due to remaining E_F inaccuracy: 0.85265128E-13
  | Maximum occupation number of highest empty state:  0.00E+00

  Highest occupied state (VBM) at     -5.05917442 eV
  | Occupation number:      1.00142921

  Lowest unoccupied state (CBM) at    -5.05914909 eV
  | Occupation number:      0.99857079

  Overall HOMO-LUMO gap:      0.00002533 eV.

  Total energy components:
  | Sum of eigenvalues            :         -82.87535803 Ha       -2255.15323297 eV
  | XC energy correction          :         -16.91864550 Ha        -460.37976798 eV
  | XC potential correction       :          21.75457995 Ha         591.97223959 eV
  | Free-atom electrostatic energy:         -71.49643139 Ha       -1945.51688498 eV
  | Hartree energy correction     :          -0.66438772 Ha         -18.07890968 eV
  | Entropy correction            :          -0.00020734 Ha          -0.00564189 eV
  | ---------------------------
  | Total energy                  :        -150.20024270 Ha       -4087.15655601 eV
  | Total energy, T -> 0          :        -150.20045003 Ha       -4087.16219790 eV  <-- do not rely on this value for anything but (periodic) metals
  | Electronic free energy        :        -150.20065737 Ha       -4087.16783978 eV

  Derived energy quantities:
  | Kinetic energy                :         150.21989352 Ha        4087.69128218 eV
  | Electrostatic energy          :        -283.50149072 Ha       -7714.46807021 eV
  | Energy correction for multipole
  | error in Hartree potential    :          -0.00059885 Ha          -0.01629560 eV
  | Sum of eigenvalues per atom                           :       -1127.57661648 eV
  | Total energy (T->0) per atom                          :       -2043.58109895 eV  <-- do not rely on this value for anything but (periodic) metals
  | Electronic free energy per atom                       :       -2043.58391989 eV

  Self-consistency convergence accuracy:
  | Change of charge density      :  0.2646E-03
  | Change of sum of eigenvalues  : -0.3481E-01 eV
  | Change of total energy        :  0.4793E-06 eV

  End self-consistency iteration #     6       :  max(cpu_time)    wall_clock(cpu1)
  | Time for this iteration                    :        0.062 s           0.062 s
  | Charge density update                      :        0.016 s           0.016 s
  | Density mixing                             :        0.001 s           0.001 s
  | Hartree multipole update                   :        0.004 s           0.004 s
  | Hartree multipole summation                :        0.016 s           0.015 s
  | Integration                                :        0.023 s           0.023 s
  | Solution of K.-S. eqns.                    :        0.001 s           0.001 s
  | Total energy evaluation                    :        0.000 s           0.000 s
------------------------------------------------------------

------------------------------------------------------------
          Begin self-consistency iteration #    7

  Date     :  20190722, Time     :  143450.748
------------------------------------------------------------
  Evaluating new KS density.
  Integration grid: deviation in total charge (<rho> - N_e) =   4.618528E-14
  Pulay mixing of updated and previous charge densities.

  Evaluating partitioned Hartree potential by multipole expansion.
  | Analytical far-field extrapolation by fixed multipoles:
  | Hartree multipole sum: apparent total charge =  -0.251630E-06
  Summing up the Hartree potential.
  Time summed over all CPUs for potential: real work        0.111 s, elapsed        0.116 s
  | RMS charge density error from multipole expansion :   0.651431E-03

  Integrating Hamiltonian matrix: batch-based integration.
  Time summed over all CPUs for integration: real work        0.175 s, elapsed        0.182 s

  Updating Kohn-Sham eigenvalues, eigenvectors, occupation numbers, and Fermi level.
  Solving generalized eigenproblem
  Updating Kohn-Sham eigenvalues and eigenfunctions.
  Solving real generalised eigenvalue problem by standard LAPACK (fast)
  Determining occupation numbers for Kohn-Sham eigenstates.
  | Chemical potential (Fermi level) in eV                 : -.50591816E+01
  | Error in electron count due to remaining E_F inaccuracy: 0.00000000E+00
  | Maximum occupation number of highest empty state:  0.00E+00

  Highest occupied state (VBM) at     -5.05918166 eV
  | Occupation number:      1.00000746

  Lowest unoccupied state (CBM) at    -5.05918152 eV
  | Occupation number:      0.99999254

  Overall HOMO-LUMO gap:      0.00000013 eV.

  Total energy components:
  | Sum of eigenvalues            :         -82.87536761 Ha       -2255.15349367 eV
  | XC energy correction          :         -16.91864571 Ha        -460.37977376 eV
  | XC potential correction       :          21.75458011 Ha         591.97224392 eV
  | Free-atom electrostatic energy:         -71.49643139 Ha       -1945.51688498 eV
  | Hartree energy correction     :          -0.66437808 Ha         -18.07864748 eV
  | Entropy correction            :          -0.00020734 Ha          -0.00564190 eV
  | ---------------------------
  | Total energy                  :        -150.20024270 Ha       -4087.15655597 eV
  | Total energy, T -> 0          :        -150.20045003 Ha       -4087.16219786 eV  <-- do not rely on this value for anything but (periodic) metals
  | Electronic free energy        :        -150.20065737 Ha       -4087.16783976 eV

  Derived energy quantities:
  | Kinetic energy                :         150.21992770 Ha        4087.69221223 eV
  | Electrostatic energy          :        -283.50152468 Ha       -7714.46899445 eV
  | Energy correction for multipole
  | error in Hartree potential    :          -0.00059886 Ha          -0.01629587 eV
  | Sum of eigenvalues per atom                           :       -1127.57674684 eV
  | Total energy (T->0) per atom                          :       -2043.58109893 eV  <-- do not rely on this value for anything but (periodic) metals
  | Electronic free energy per atom                       :       -2043.58391988 eV

  Self-consistency convergence accuracy:
  | Change of charge density      :  0.4460E-03
  | Change of sum of eigenvalues  : -0.2607E-03 eV
  | Change of total energy        :  0.4099E-07 eV

  End self-consistency iteration #     7       :  max(cpu_time)    wall_clock(cpu1)
  | Time for this iteration                    :        0.065 s           0.064 s
  | Charge density update                      :        0.016 s           0.015 s
  | Density mixing                             :        0.002 s           0.002 s
  | Hartree multipole update                   :        0.004 s           0.003 s
  | Hartree multipole summation                :        0.016 s           0.016 s
  | Integration                                :        0.024 s           0.023 s
  | Solution of K.-S. eqns.                    :        0.001 s           0.002 s
  | Total energy evaluation                    :        0.001 s           0.002 s
------------------------------------------------------------

------------------------------------------------------------
          Begin self-consistency iteration #    8

  Date     :  20190722, Time     :  143450.814
------------------------------------------------------------
  Evaluating new KS density.
  Integration grid: deviation in total charge (<rho> - N_e) =  -5.151435E-14
  Pulay mixing of updated and previous charge densities.

  Evaluating partitioned Hartree potential by multipole expansion.
  | Analytical far-field extrapolation by fixed multipoles:
  | Hartree multipole sum: apparent total charge =  -0.251642E-06
  Summing up the Hartree potential.
  Time summed over all CPUs for potential: real work        0.114 s, elapsed        0.118 s
  | RMS charge density error from multipole expansion :   0.651419E-03

  Integrating Hamiltonian matrix: batch-based integration.
  Time summed over all CPUs for integration: real work        0.173 s, elapsed        0.180 s

  Updating Kohn-Sham eigenvalues, eigenvectors, occupation numbers, and Fermi level.
  Solving generalized eigenproblem
  Updating Kohn-Sham eigenvalues and eigenfunctions.
  Solving real generalised eigenvalue problem by standard LAPACK (fast)
  Determining occupation numbers for Kohn-Sham eigenstates.
  | Chemical potential (Fermi level) in eV                 : -.50590473E+01
  | Error in electron count due to remaining E_F inaccuracy: -.85265128E-13
  | Maximum occupation number of highest empty state:  0.00E+00

  Highest occupied state (VBM) at     -5.05904734 eV
  | Occupation number:      1.00000004

  Lowest unoccupied state (CBM) at    -5.05904734 eV
  | Occupation number:      0.99999996

  Overall HOMO-LUMO gap:      0.00000000 eV.

  Total energy components:
  | Sum of eigenvalues            :         -82.87526477 Ha       -2255.15069517 eV
  | XC energy correction          :         -16.91865545 Ha        -460.38003865 eV
  | XC potential correction       :          21.75459298 Ha         591.97259412 eV
  | Free-atom electrostatic energy:         -71.49643139 Ha       -1945.51688498 eV
  | Hartree energy correction     :          -0.66448406 Ha         -18.08153128 eV
  | Entropy correction            :          -0.00020734 Ha          -0.00564190 eV
  | ---------------------------
  | Total energy                  :        -150.20024270 Ha       -4087.15655597 eV
  | Total energy, T -> 0          :        -150.20045003 Ha       -4087.16219786 eV  <-- do not rely on this value for anything but (periodic) metals
  | Electronic free energy        :        -150.20065737 Ha       -4087.16783976 eV

  Derived energy quantities:
  | Kinetic energy                :         150.21998307 Ha        4087.69371902 eV
  | Electrostatic energy          :        -283.50157032 Ha       -7714.47023633 eV
  | Energy correction for multipole
  | error in Hartree potential    :          -0.00059887 Ha          -0.01629608 eV
  | Sum of eigenvalues per atom                           :       -1127.57534758 eV
  | Total energy (T->0) per atom                          :       -2043.58109893 eV  <-- do not rely on this value for anything but (periodic) metals
  | Electronic free energy per atom                       :       -2043.58391988 eV

  Self-consistency convergence accuracy:
  | Change of charge density      :  0.1433E-04
  | Change of sum of eigenvalues  :  0.2799E-02 eV
  | Change of total energy        :  0.1556E-08 eV

  Electronic self-consistency reached - switching on the force computation.

  End self-consistency iteration #     8       :  max(cpu_time)    wall_clock(cpu1)
  | Time for this iteration                    :        0.063 s           0.063 s
  | Charge density & force component update    :        0.017 s           0.016 s
  | Density mixing                             :        0.002 s           0.002 s
  | Hartree multipole update                   :        0.004 s           0.003 s
  | Hartree multipole summation                :        0.016 s           0.016 s
  | Integration                                :        0.023 s           0.023 s
  | Solution of K.-S. eqns.                    :        0.001 s           0.001 s
  | Total energy evaluation                    :        0.000 s           0.000 s
------------------------------------------------------------

------------------------------------------------------------
          Begin self-consistency iteration #    9

  Date     :  20190722, Time     :  143450.879
------------------------------------------------------------
  Evaluating new KS density.
  Integration grid: deviation in total charge (<rho> - N_e) =  -2.309264E-13
  Pulay mixing of updated and previous charge densities.

  Evaluating partitioned Hartree potential by multipole expansion.
  | Analytical far-field extrapolation by fixed multipoles:
  | Hartree multipole sum: apparent total charge =  -0.251638E-06
  Summing up the Hartree potential.
  Time summed over all CPUs for potential: real work        0.292 s, elapsed        0.309 s
  | RMS charge density error from multipole expansion :   0.651462E-03

  Integrating Hamiltonian matrix: batch-based integration.
  Time summed over all CPUs for integration: real work        0.172 s, elapsed        0.180 s

  Updating Kohn-Sham eigenvalues, eigenvectors, occupation numbers, and Fermi level.
  Solving generalized eigenproblem
  Updating Kohn-Sham eigenvalues and eigenfunctions.
  Solving real generalised eigenvalue problem by standard LAPACK (fast)
  Determining occupation numbers for Kohn-Sham eigenstates.
  | Chemical potential (Fermi level) in eV                 : -.50590182E+01
  | Error in electron count due to remaining E_F inaccuracy: 0.00000000E+00
  | Maximum occupation number of highest empty state:  0.00E+00

  Highest occupied state (VBM) at     -5.05901822 eV
  | Occupation number:      1.00000001

  Lowest unoccupied state (CBM) at    -5.05901822 eV
  | Occupation number:      0.99999999

  Overall HOMO-LUMO gap:      0.00000000 eV.

  Total energy components:
  | Sum of eigenvalues            :         -82.87524534 Ha       -2255.15016641 eV
  | XC energy correction          :         -16.91865719 Ha        -460.38008602 eV
  | XC potential correction       :          21.75459526 Ha         591.97265625 eV
  | Free-atom electrostatic energy:         -71.49643139 Ha       -1945.51688498 eV
  | Hartree energy correction     :          -0.66450404 Ha         -18.08207481 eV
  | Entropy correction            :          -0.00020734 Ha          -0.00564190 eV
  | ---------------------------
  | Total energy                  :        -150.20024270 Ha       -4087.15655597 eV
  | Total energy, T -> 0          :        -150.20045003 Ha       -4087.16219787 eV  <-- do not rely on this value for anything but (periodic) metals
  | Electronic free energy        :        -150.20065737 Ha       -4087.16783977 eV

  Derived energy quantities:
  | Kinetic energy                :         150.21997454 Ha        4087.69348672 eV
  | Electrostatic energy          :        -283.50156004 Ha       -7714.46995667 eV
  | Energy correction for multipole
  | error in Hartree potential    :          -0.00059888 Ha          -0.01629642 eV
  | Sum of eigenvalues per atom                           :       -1127.57508320 eV
  | Total energy (T->0) per atom                          :       -2043.58109894 eV  <-- do not rely on this value for anything but (periodic) metals
  | Electronic free energy per atom                       :       -2043.58391988 eV

  atomic forces [eV/Ang]:
  -----------------------
  atom #    1
   Hellmann-Feynman              : -0.791555E-10 -0.669545E-10 -0.249183E+02
   Ionic forces                  :  0.000000E+00  0.000000E+00  0.000000E+00
   Multipole                     :  0.793273E-13 -0.178723E-12  0.453891E-01
   Pulay + GGA                   :  0.000000E+00  0.000000E+00  0.000000E+00
   ----------------------------------------------------------------
   Total forces(   1)            : -0.790762E-10 -0.671333E-10 -0.248729E+02
  atom #    2
   Hellmann-Feynman              :  0.276365E-10 -0.231891E-10  0.249183E+02
   Ionic forces                  :  0.000000E+00  0.000000E+00  0.000000E+00
   Multipole                     : -0.787475E-13 -0.703826E-13 -0.453891E-01
   Pulay + GGA                   :  0.000000E+00  0.000000E+00  0.000000E+00
   ----------------------------------------------------------------
   Total forces(   2)            :  0.275577E-10 -0.232595E-10  0.248729E+02


  Self-consistency convergence accuracy:
  | Change of charge density      :  0.4459E-05
  | Change of sum of eigenvalues  :  0.5288E-03 eV
  | Change of total energy        : -0.7292E-08 eV
  | Change of forces              :  0.2487E+02 eV/A

  End self-consistency iteration #     9       :  max(cpu_time)    wall_clock(cpu1)
  | Time for this iteration                    :        0.087 s           0.086 s
  | Charge density & force component update    :        0.016 s           0.015 s
  | Density mixing                             :        0.002 s           0.002 s
  | Hartree multipole update                   :        0.004 s           0.003 s
  | Hartree multipole summation                :        0.039 s           0.040 s
  | Integration                                :        0.023 s           0.023 s
  | Solution of K.-S. eqns.                    :        0.001 s           0.001 s
  | Total energy evaluation                    :        0.001 s           0.002 s
------------------------------------------------------------

------------------------------------------------------------
          Begin self-consistency iteration #   10

  Date     :  20190722, Time     :  143450.968
------------------------------------------------------------
  Evaluating new KS density and force components.
  Integration grid: deviation in total charge (<rho> - N_e) =  -2.309264E-14
  Pulay mixing of updated and previous charge densities.

  Evaluating partitioned Hartree potential by multipole expansion.
  | Analytical far-field extrapolation by fixed multipoles:
  | Hartree multipole sum: apparent total charge =  -0.251638E-06
  Summing up the Hartree potential.
  Time summed over all CPUs for potential: real work        0.292 s, elapsed        0.308 s
  | RMS charge density error from multipole expansion :   0.651462E-03

  Integrating Hamiltonian matrix: batch-based integration.
  Time summed over all CPUs for integration: real work        0.173 s, elapsed        0.180 s

  Updating Kohn-Sham eigenvalues, eigenvectors, occupation numbers, and Fermi level.
  Solving generalized eigenproblem
  Updating Kohn-Sham eigenvalues and eigenfunctions.
  Solving real generalised eigenvalue problem by standard LAPACK (fast)
  Determining occupation numbers for Kohn-Sham eigenstates.
  | Chemical potential (Fermi level) in eV                 : -.50590168E+01
  | Error in electron count due to remaining E_F inaccuracy: 0.85265128E-13
  | Maximum occupation number of highest empty state:  0.00E+00

  Highest occupied state (VBM) at     -5.05901677 eV
  | Occupation number:      1.00000046

  Lowest unoccupied state (CBM) at    -5.05901676 eV
  | Occupation number:      0.99999954

  Overall HOMO-LUMO gap:      0.00000001 eV.

  Total energy components:
  | Sum of eigenvalues            :         -82.87524408 Ha       -2255.15013224 eV
  | XC energy correction          :         -16.91865734 Ha        -460.38009019 eV
  | XC potential correction       :          21.75459546 Ha         591.97266169 eV
  | Free-atom electrostatic energy:         -71.49643139 Ha       -1945.51688498 eV
  | Hartree energy correction     :          -0.66450534 Ha         -18.08211025 eV
  | Entropy correction            :          -0.00020734 Ha          -0.00564190 eV
  | ---------------------------
  | Total energy                  :        -150.20024270 Ha       -4087.15655598 eV
  | Total energy, T -> 0          :        -150.20045003 Ha       -4087.16219787 eV  <-- do not rely on this value for anything but (periodic) metals
  | Electronic free energy        :        -150.20065737 Ha       -4087.16783977 eV

  Derived energy quantities:
  | Kinetic energy                :         150.21997554 Ha        4087.69351410 eV
  | Electrostatic energy          :        -283.50156090 Ha       -7714.46997988 eV
  | Energy correction for multipole
  | error in Hartree potential    :          -0.00059888 Ha          -0.01629645 eV
  | Sum of eigenvalues per atom                           :       -1127.57506612 eV
  | Total energy (T->0) per atom                          :       -2043.58109894 eV  <-- do not rely on this value for anything but (periodic) metals
  | Electronic free energy per atom                       :       -2043.58391988 eV

  atomic forces [eV/Ang]:
  -----------------------
  atom #    1
   Hellmann-Feynman              :  0.231381E-10 -0.164750E-11 -0.249183E+02
   Ionic forces                  :  0.000000E+00  0.000000E+00  0.000000E+00
   Multipole                     :  0.275621E-12 -0.178302E-12  0.453892E-01
   Pulay + GGA                   :  0.254536E-10  0.131592E-10  0.148729E+02
   ----------------------------------------------------------------
   Total forces(   1)            :  0.488673E-10  0.113334E-10 -0.100000E+02
  atom #    2
   Hellmann-Feynman              :  0.373440E-10  0.144963E-10  0.249183E+02
   Ionic forces                  :  0.000000E+00  0.000000E+00  0.000000E+00
   Multipole                     :  0.447207E-13 -0.662584E-13 -0.453892E-01
   Pulay + GGA                   : -0.523800E-11  0.111440E-10 -0.148729E+02
   ----------------------------------------------------------------
   Total forces(   2)            :  0.321507E-10  0.255740E-10  0.100000E+02


  Self-consistency convergence accuracy:
  | Change of charge density      :  0.1945E-06
  | Change of sum of eigenvalues  :  0.3417E-04 eV
  | Change of total energy        : -0.6961E-10 eV
  | Change of forces              :  0.3541E-04 eV/A

  Writing Kohn-Sham eigenvalues.

  State    Occupation    Eigenvalue [Ha]    Eigenvalue [eV]
      1       2.00000         -18.889630         -514.01299
      2       2.00000         -18.889404         -514.00683
      3       2.00000          -1.269639          -34.54865
      4       2.00000          -0.700708          -19.06723
      5       2.00000          -0.503622          -13.70424
      6       2.00000          -0.503622          -13.70424
      7       2.00000          -0.495082          -13.47188
      8       1.00000          -0.185915           -5.05902
      9       1.00000          -0.185915           -5.05902
     10       0.00000           0.098728            2.68652
     11       0.00000           0.105717            2.87671
     12       0.00000           0.132979            3.61854
     13       0.00000           0.132979            3.61854
     14       0.00000           0.210325            5.72323

  Highest occupied state (VBM) at     -5.05901677 eV
  | Occupation number:      1.00000046

  Lowest unoccupied state (CBM) at    -5.05901676 eV
  | Occupation number:      0.99999954

  Overall HOMO-LUMO gap:      0.00000001 eV.

  Self-consistency cycle converged.

  End self-consistency iteration #    10       :  max(cpu_time)    wall_clock(cpu1)
  | Time for this iteration                    :        0.125 s           0.126 s
  | Charge density & force component update    :        0.053 s           0.054 s
  | Density mixing                             :        0.002 s           0.002 s
  | Hartree multipole update                   :        0.004 s           0.003 s
  | Hartree multipole summation                :        0.040 s           0.039 s
  | Integration                                :        0.023 s           0.023 s
  | Solution of K.-S. eqns.                    :        0.001 s           0.001 s
  | Total energy evaluation                    :        0.001 s           0.002 s
------------------------------------------------------------
  Writing cluster restart information to file restart
  ------------------------------------------------------------
   Computing monopole / dipole moments for complete molecule:
  | Total electronic charge [e]         :          0.159999999999999E+02
  | Total ionic charge [e]              :          0.160000000000000E+02
  | Total charge [e]                    :          0.124344978758018E-12
  | Total dipole moment [eAng]          :         -0.528901126564674E-13        -0.182934283014802E-13        -0.620404987117240E-13
  | Absolute dipole moment              :          0.835526002960688E-13 eAng              /                   0.401257697325016E-12 Debye  .
  Removing unitary transformations (pure translations, rotations) from forces on atoms.
  Atomic forces before filtering:
  | Net force on center of mass :   0.810179E-10  0.369074E-10  0.607723E-11 eV/A
  | Net torque on center of mass:  -0.797674E-11 -0.936364E-11  0.000000E+00 eV
  Atomic forces after filtering:
  | Net force on center of mass :   0.155769E-25  0.778845E-26  0.000000E+00 eV/A
  | Net torque on center of mass:   0.145421E-26  0.872526E-26  0.000000E+00 eV

  Energy and forces in a compact form:
  | Total energy uncorrected      :         -0.408715655597506E+04 eV
  | Total energy corrected        :         -0.408716219787077E+04 eV  <-- do not rely on this value for anything but (periodic) metals
  | Electronic free energy        :         -0.408716783976648E+04 eV
  Total atomic forces (unitary forces cleaned) [eV/Ang]:
  |   1          0.000000000000000E+00          0.519230158900898E-26         -0.999999911556421E+01
  |   2          0.155769047670269E-25          0.259615079450449E-26          0.999999911556421E+01

  ------------------------------------ 
  Start decomposition of the XC Energy 
  ------------------------------------ 
  Hartree-Fock part   :          0.000000000 Ha              0.000000000 eV
  ------------------------------------ 
  X Energy            :        -16.378170426 Ha           -445.672692873 eV
  C Energy GGA        :         -0.540486917 Ha            -14.707397318 eV
  Total XC Energy     :        -16.918657343 Ha           -460.380090191 eV
  LDA X and C from self-consistent density 
  X Energy LDA        :        -14.883705053 Ha           -405.006220991 eV
  C Energy LDA        :         -1.116159737 Ha            -30.372251772 eV
  ------------------------------------ 
  End decomposition of the XC Energy 
  ------------------------------------ 

------------------------------------------------------------------------------
  Final output of selected total energy values:

  The following output summarizes some interesting total energy values
  at the end of a run (AFTER all relaxation, molecular dynamics, etc.).

  | Total energy of the DFT / Hartree-Fock s.c.f. calculation      :          -4087.156555975 eV
  | Final zero-broadening corrected energy (caution - metals only) :          -4087.162197871 eV
  | For reference only, the value of 1 Hartree used in FHI-aims is :             27.211384500 eV

  Before relying on these values, please be sure to understand exactly which
  total energy value is referred to by a given number. Different objects may
  all carry the same name 'total energy'. Definitions:

  Total energy of the DFT / Hartree-Fock s.c.f. calculation:
  | Note that this energy does not include ANY quantities calculated after the
  | s.c.f. cycle, in particular not ANY RPA, MP2, etc. many-body perturbation terms.

  Final zero-broadening corrected energy:
  | For metallic systems only, a broadening of the occupation numbers at the Fermi
  | level can be extrapolated back to zero broadening by an electron-gas inspired
  | formula. For all systems that are not real metals, this value can be
  | meaningless and should be avoided.

------------------------------------------------------------------------------
  Methods described in the following list of references were used in this FHI-aims run.
  If you publish the results, please make sure to cite these reference if they apply.
  FHI-aims is an academic code, and for our developers (often, Ph.D. students
  and postdocs), scientific credit in the community is essential.
  Thank you for helping us!

  For any use of FHI-aims, please cite:

    Volker Blum, Ralf Gehrke, Felix Hanke, Paula Havu, Ville Havu,
    Xinguo Ren, Karsten Reuter, and Matthias Scheffler
    'Ab initio molecular simulations with numeric atom-centered orbitals'
    Computer Physics Communications 180, 2175-2196 (2009)
    http://dx.doi.org/10.1016/j.cpc.2009.06.022


  For the real-space grid partitioning and parallelization used in this calculation, please cite:

    Ville Havu, Volker Blum, Paula Havu, and Matthias Scheffler,
    'Efficient O(N) integration for all-electron electronic structure calculation'
    'using numerically tabulated basis functions'
    Journal of Computational Physics 228, 8367-8379 (2009).
    http://dx.doi.org/10.1016/j.jcp.2009.08.008

  Of course, there are many other important community references, e.g., those cited in the
  above references. Our list is limited to references that describe implementations in the
  FHI-aims code. The reason is purely practical (length of this list) - please credit others as well.

------------------------------------------------------------
          Leaving FHI-aims.
          Date     :  20190722, Time     :  143451.156

          Computational steps:
          | Number of self-consistency cycles          :           10

          Detailed time accounting                     :  max(cpu_time)    wall_clock(cpu1)
          | Total time                                 :        1.068 s           1.093 s
          | Preparation time                           :        0.156 s           0.161 s
          | Grid partitioning                          :        0.019 s           0.019 s
          | Preloading free-atom quantities on grid    :        0.018 s           0.018 s
          | Free-atom superposition energy             :        0.005 s           0.004 s
          | Total time for integrations                :        0.266 s           0.265 s
          | Total time for solution of K.-S. equations :        0.019 s           0.022 s
          | Total time for density & force components  :        0.201 s           0.196 s
          | Total time for mixing                      :        0.015 s           0.015 s
          | Total time for Hartree multipole update    :        0.041 s           0.035 s
          | Total time for Hartree multipole sum       :        0.208 s           0.206 s
          | Total time for total energy evaluation     :        0.004 s           0.012 s

          Have a nice day.
------------------------------------------------------------
