  MPI-parallelism will be employed.
------------------------------------------------------------
          Invoking FHI-aims ...
          Version 160328_3
          Compiled on 2019/06/10 at 14:55:49 on host taito-login3.csc.fi.

          When using FHI-aims, please cite the following reference:

          Volker Blum, Ralf Gehrke, Felix Hanke, Paula Havu,
          Ville Havu, Xinguo Ren, Karsten Reuter, and Matthias Scheffler,
          'Ab Initio Molecular Simulations with Numeric Atom-Centered Orbitals',
          Computer Physics Communications 180, 2175-2196 (2009)

          For any questions about FHI-aims, please visit the aimsclub website
          with its forums and wiki. Contributions to both the forums and the
          wiki are warmly encouraged - they are for you, and everyone is welcome there.

------------------------------------------------------------

  Date     :  20190722, Time     :  144416.654
  Time zero on CPU 1             :   0.739880000000000E-01  s.
  Internal wall clock time zero  :           333038656.654  s.

  Using        4 parallel tasks.
  Task        0 on host c798 reporting.
  Task        1 on host c798 reporting.
  Task        2 on host c798 reporting.
  Task        3 on host c798 reporting.

  Performing system and environment tests:
  | Environment variable OMP_NUM_THREADS correctly set to 1.
  | Maximum stacksize for task 0: unlimited
  | Maximum stacksize for task 1: unlimited
  | Maximum stacksize for task 2: unlimited
  | Maximum stacksize for task 3: unlimited
  | Current stacksize for task 0: 1024 [Mb]
  | Current stacksize for task 1: 1024 [Mb]
  | Current stacksize for task 2: 1024 [Mb]
  | Current stacksize for task 3: 1024 [Mb]
  | Checking for scalapack...
  | No scalapack compiled in.

  Obtaining array dimensions for all initial allocations:
  
  -----------------------------------------------------------------------
  Parsing control.in (first pass over file, find array dimensions only).
  The contents of control.in will be repeated verbatim below
  unless switched off by setting 'verbatim_writeout .false.' .
  in the first line of control.in .
  -----------------------------------------------------------------------
  
    #  Physical model settings
    #
  
    xc                            pbe
    charge                        1.0
    relativistic                  none
  #  default_initial_moment        0.0
    spin                          none
  #  vdw_correction_hirshfeld
  
    #  SCF convergence settings
    #
  
    sc_accuracy_rho               1E-4
    sc_accuracy_eev               1E-2
    sc_accuracy_etot              1E-8
    sc_iter_limit                 100
  
    #  Occupation settings
    #
  
    restart                       restart
  #  force_occupation_projector      6 1 1.0 6 7 # ion 3
  
    #  Relaxation
    #
  
    ####relax_geometry                bfgs    1.e-4
  
  
  ################################################################################
  #
  #  FHI-aims code project
  #  VB, Fritz-Haber Institut, 2007
  #
  #  Suggested "safe" defaults for O atom (to be pasted into control.in file)
  #
  ################################################################################
    species        O
  #     global species definitions
      nucleus             8
      mass                15.9994
  #
      l_hartree           8
  #
      cut_pot             4.0  2.0  1.0
      basis_dep_cutoff    0.d0
  #
      radial_base         36 7.0
      radial_multiplier   2
       angular_grids specified
        division   0.4087  110
        division   0.5181  194
        division   0.6184  302
        division   0.7315  434
        division   0.7934  590
  #      division   0.9656  770
  #      division   1.4041  974
  #      outer_grid 974
        outer_grid 590
  ################################################################################
  #
  #  Definition of "minimal" basis
  #
  ################################################################################
  #     valence basis states
      valence      2  s   2.
      valence      2  p   4.
  #     ion occupancy
      ion_occ      2  s   1.
      ion_occ      2  p   3.
  ################################################################################
  #
  #  Suggested additional basis functions. For production calculations,
  #  uncomment them one after another (the most important basis functions are
  #  listed first).
  #
  #  Constructed for dimers: 1.0 A, 1.208 A, 1.5 A, 2.0 A, 3.0 A
  #
  ################################################################################
  #  "First tier" - improvements: -699.05 meV to -159.38 meV
       hydro 2 p 1.8
       hydro 3 d 7.6
       hydro 3 s 6.4
  #  "Second tier" - improvements: -49.91 meV to -5.39 meV
       hydro 4 f 11.6
       hydro 3 p 6.2
       hydro 3 d 5.6
       hydro 5 g 17.6
       hydro 1 s 0.75
  #  "Third tier" - improvements: -2.83 meV to -0.50 meV
  #     ionic 2 p auto
  #     hydro 4 f 10.8
  #     hydro 4 d 4.7
  #     hydro 2 s 6.8
  #  "Fourth tier" - improvements: -0.40 meV to -0.12 meV
  #     hydro 3 p 5
  #     hydro 3 s 3.3
  #     hydro 5 g 15.6
  #     hydro 4 f 17.6
  #     hydro 4 d 14
  # Further basis functions - -0.08 meV and below
  #     hydro 3 s 2.1
  #     hydro 4 d 11.6
  #     hydro 3 p 16
  #     hydro 2 s 17.2
  compute_forces .true.
  final_forces_cleaned .true.
  output dipole
  
  -----------------------------------------------------------------------
  Completed first pass over input file control.in .
  -----------------------------------------------------------------------
  
  
  -----------------------------------------------------------------------
  Parsing geometry.in (first pass over file, find array dimensions only).
  The contents of geometry.in will be repeated verbatim below
  unless switched off by setting 'verbatim_writeout .false.' .
  in the first line of geometry.in .
  -----------------------------------------------------------------------
  
  #
  # temporary structure-file for finite-difference calculation of forces
  # displacement   0.0025 of \# atom     0 direction     1
  #
  atom    0.00000000    0.00250000    0.04235920   O
  atom   -0.00000000   -0.00000000    1.16514080   O
  
  -----------------------------------------------------------------------
  Completed first pass over input file geometry.in .
  -----------------------------------------------------------------------
  

  Basic array size parameters:
  | Number of species                 :        1
  | Number of atoms                   :        2
  | Max. basis fn. angular momentum   :        4
  | Max. atomic/ionic basis occupied n:        2
  | Max. number of basis fn. types    :        2
  | Max. radial fns per species/type  :        8
  | Max. logarithmic grid size        :     1301
  | Max. radial integration grid size :       73
  | Max. angular integration grid size:      590
  | Max. angular grid division number :        8
  | Radial grid for Hartree potential :     1301
  | Number of spin channels           :        1

------------------------------------------------------------
          Reading file control.in.
------------------------------------------------------------
  XC: Using PBE gradient-corrected functionals.
  Charged system requested: Charge =   0.100000E+01.
  Non-relativistic treatment of kinetic energy.
  Spin treatment: No spin polarisation.
  Convergence accuracy of self-consistent charge density:  0.1000E-03
  Convergence accuracy of sum of eigenvalues:  0.1000E-01
  Convergence accuracy of total energy:  0.1000E-07
  Maximum number of s.-c. iterations  :   100
  Restart file specified as : restart
  | Reading information from existing file.
 
  Reading configuration options for species O                   .
  | Found nuclear charge :   8.0000
  | Found atomic mass :    15.9994000000000      amu
  | Found l_max for Hartree potential  :   8
  | Found cutoff potl. onset [A], width [A], scale factor :    4.00000    2.00000    1.00000
  | Threshold for basis-dependent cutoff potential is   0.000000E+00
  | Found data for basic radial integration grid :    36 points, outermost radius =    7.000 A
  | Found multiplier for basic radial grid :   2
  | Found angular grid specification: user-specified.
  | Specified grid contains     6 separate shells.
  | Check grid settings after all constraints further below.
  | Found free-atom valence shell :  2 s   2.000
  | Found free-atom valence shell :  2 p   4.000
  | No ionic wave fns used. Skipping ion_occ.
  | No ionic wave fns used. Skipping ion_occ.
  | Found hydrogenic basis function :  2 p   1.800
  | Found hydrogenic basis function :  3 d   7.600
  | Found hydrogenic basis function :  3 s   6.400
  | Found hydrogenic basis function :  4 f  11.600
  | Found hydrogenic basis function :  3 p   6.200
  | Found hydrogenic basis function :  3 d   5.600
  | Found hydrogenic basis function :  5 g  17.600
  | Found hydrogenic basis function :  1 s   0.750
  Species O                   : Missing cutoff potential type.
  Defaulting to exp(1/x)/(1-x)^2 type cutoff potential.
  Species O : No 'logarithmic' tag. Using default grid for free atom:
  | Default logarithmic grid data [bohr] : 0.1000E-03 0.1000E+03 0.1012E+01
  Species O : On-site basis accuracy parameter (for Gram-Schmidt orthonormalisation) not specified.
  Using default value basis_acc =  0.1000000E-03.
  Species O                   : Using default innermost maximum threshold i_radial=  2 for radial functions.
  Species O                   : Default cutoff onset for free atom density etc. : 0.40000000E+01 AA.
  Species O                   : Basic radial grid will be enhanced according to radial_multiplier =   2, to contain    73 grid points.
  Forces will be computed.
  Cleaning forces before final output.
  Dipole moment will be written out.
 
  Finished reading input file 'control.in'. Consistency checks are next.
 
  Target number of points in a grid batch is not set. Defaulting to  100
  Method for grid partitioning is not set. Defaulting to parallel hash+maxmin partitioning.
  Batch size limit is not set. Defaulting to    200
  By default, will store active basis functions for each batch.
  If in need of memory, prune_basis_once .false. can be used to disable this option.
  communication_type for Hartree potential was not specified.
  Defaulting to calc_hartree .
  Defaulting to Pulay charge density mixer.
  Pulay mixer: Number of relevant iterations not set.
  Defaulting to    8 iterations.
  Pulay mixer: Number of initial linear mixing iterations not set.
  Defaulting to    0 iterations.
  Work space size for distributed Hartree potential not set.
  Defaulting to   0.200000E+03 MB.
  Mixing parameter for charge density mixing has not been set.
  Using default: charge_mix_param =     0.2000.
  Algorithm-dependent basis array size parameters:
  | n_max_pulay                         :        8
  Geometry relaxation not requested: no relaxation will be performed.
  Force calculation: scf convergence accuracy of forces not set.
  Defaulting to  0.1000E-03 eV/A.
  Handling of forces: Unphysical translation and rotation will be removed from forces.
  No accuracy limit for integral partition fn. given. Defaulting to  0.1000E-14.
  No threshold value for u(r) in integrations given. Defaulting to  0.1000E-05.
  No occupation type (smearing scheme) given. Defaulting to Gaussian broadening, width =  0.1000E-01 eV.
  No accuracy for occupation numbers given. Defaulting to  0.1000E-07.
  No threshold value for occupation numbers given. Defaulting to  0.0000E+00.
  No accuracy for fermi level given. Defaulting to  0.1000E-19.
  Maximum # of iterations to find E_F not set. Defaulting to  200.
  Preferred method for the eigenvalue solver ('KS_method') not specified in 'control.in'.
  Calling blacs routine to test compilation state
  The best choice would be 'elpa', but your version of FHI-aims is compiled without scalapack support.
  Defaulting to 'lapack_fast' instead (serial solution, time will not improve with more CPUs).
  Will not use alltoall communication since running on < 1024 CPUs.
  Threshold for basis singularities not set.
  Default threshold for basis singularities:  0.1000E-04
  partition_type (choice of integration weights) for integrals was not specified.
  | Using a version of the partition function of Stratmann and coworkers ('stratmann_smoother').
  | At each grid point, the set of atoms used to build the partition table is smoothly restricted to
  | only those atoms whose free-atom density would be non-zero at that grid point.
  Partitioning for Hartree potential was not defined. Using partition_type for integrals.
  | Adjusted default value of keyword multip_moments_threshold to:       0.10000000E-11
  | This value may affect high angular momentum components of the Hartree potential in periodic systems.
  No q(lm)/r^(l+1) cutoff set for long-range Hartree potential.
  | Using default value of  0.100000E-09 .
  | Verify using the multipole_threshold keyword.
  Defaulting to new monopole extrapolation.
  Density update method: automatic selection selected.
------------------------------------------------------------


------------------------------------------------------------
          Reading geometry description geometry.in.
------------------------------------------------------------
 * Warning: Initial charge and total charge of the system are inconsistent.
 * Selected charge in control.in:     1.0000* Sum of initial charges in geometry.in:     0.0000
  Input structure read successfully.
  The structure contains        2 atoms,  and a total of         15.000 electrons.

  Input geometry:
  | No unit cell requested.
  | Atomic structure:
  |       Atom                x [A]            y [A]            z [A]
  |    1: Species O              0.000000         0.002500         0.042359
  |    2: Species O              0.000000         0.000000         1.165141
  |

  | The smallest distance between any two atoms is         1.12278438 AA.
  |
  | The first atom of this pair is atom number                      1 .
  | The second atom of this pair is atom number                     2 .

  Number of empty states per atom not set in control.in - providing a guess from actual geometry.
  | Total number of empty states used during s.c.f. cycle:        6
  If you use a very high smearing, use empty_states (per atom!) in control.in to increase this value.

  Structure-dependent array size parameters: 
  | Maximum number of distinct radial functions  :       11
  | Maximum number of basis functions            :       78
  | Number of Kohn-Sham states (occupied + empty):       14
------------------------------------------------------------

------------------------------------------------------------
          Preparing all fixed parts of the calculation.
------------------------------------------------------------
  Determining machine precision:
    2.225073858507201E-308
  Setting up grids for atomic and cluster calculations.

  Creating wave function, potential, and density for free atoms.

  Species: O

  List of occupied orbitals and eigenvalues:
    n    l              occ      energy [Ha]    energy [eV]
    1    0           2.0000       -18.898576      -514.2564
    2    0           2.0000        -0.878795       -23.9132
    2    1           4.0000        -0.332075        -9.0362

  Creating fixed part of basis set: Ionic, confined, hydrogenic.
 
  O                    hydrogenic:
 
  List of hydrogenic basis orbitals: 
    n    l      effective z      eigenvalue [eV]  inner max. [A]     outer max. [A]     outer radius [A]   
    2    1         1.800000       -11.0118           1.178562           1.178562           5.432602
    3    2         7.600000       -87.3183           0.624125           0.624125           4.634338
    3    0         6.400000       -61.9210           0.061167           1.081902           5.110480
    4    3        11.600000      -114.4239           0.731631           0.731631           4.522403
    3    1         6.200000       -58.1114           0.255680           1.030270           5.110480
    3    2         5.600000       -47.4083           0.847233           0.847233           5.173339
    5    4        17.600000      -168.5800           0.749740           0.749740           4.051222
    1    0         0.750000        -7.6499           0.705284           0.705284           5.366593
 

  Adding cutoff potential to free-atom effective potential.
  Creating atomic-like basis functions for current effective potential.

  Species O                   :

  List of atomic basis orbitals and eigenvalues:
    n    l      energy [Ha]    energy [eV]    outer radius [A]
    1    0       -18.898576      -514.2564       1.415765
    2    0        -0.878795       -23.9132       5.048385
    2    1        -0.332075        -9.0362       5.301386

  Assembling full basis from fixed parts.
  | Species O :   atomic orbital   1 s accepted.
  | Species O :   atomic orbital   2 s accepted.
  | Species O :    hydro orbital   3 s accepted.
  | Species O :    hydro orbital   1 s accepted.
  | Species O :   atomic orbital   2 p accepted.
  | Species O :    hydro orbital   2 p accepted.
  | Species O :    hydro orbital   3 p accepted.
  | Species O :    hydro orbital   3 d accepted.
  | Species O :    hydro orbital   3 d accepted.
  | Species O :    hydro orbital   4 f accepted.
  | Species O :    hydro orbital   5 g accepted.
 
  Basis size parameters after reduction:
  | Total number of radial functions:       11
  | Total number of basis functions :       78
 
  Testing on-site integration grid accuracy.
  |  Species  Function  <phi|h_atom|phi> (log., in eV)  <phi|h_atom|phi> (rad., in eV)
           1        1               -514.2564144315               -514.2564099626
           1        2                -23.9132357102                -23.9132356433
           1        3                 17.5398579759                 17.5398338425
           1        4                 14.5207278950                 14.5207740449
           1        5                 -9.0362392718                 -9.0362394845
           1        6                  7.9056275927                  7.9056237490
           1        7                 33.4201658992                 33.4201612015
           1        8                 45.8231952720                 45.8231953152
           1        9                 52.1937595491                 52.1937593440
           1       10                 85.4062894308                 85.4062894578
           1       11                142.0975701139                142.0975701391

  Preparing densities etc. for the partition functions (integrals / Hartree potential).

  Preparations completed.
  max(cpu_time)          :      0.144 s.
  Wall clock time (cpu1) :      0.157 s.
------------------------------------------------------------

------------------------------------------------------------
          Begin self-consistency loop: Initialization.

          Date     :  20190722, Time     :  144416.828
------------------------------------------------------------

  Initializing index lists of integration centers etc. from given atomic structure:
  | Number of centers in hartree potential         :         2
  | Number of centers in hartree multipole         :         2
  | Number of centers in electron density summation:         2
  | Number of centers in basis integrals           :         2
  | Number of centers in integrals                 :         2
  | Number of centers in hamiltonian               :         2
  Partitioning the integration grid into batches with parallel hashing+maxmin method.
  | Number of batches:      824
  | Maximal batch size:     110
  | Minimal batch size:      49
  | Average batch size:      64.636
  | Standard deviation of batch sizes:      20.551

  Integration load balanced across     4 MPI tasks.
  Work distribution over tasks is as follows:
  Task     0 has      13331 integration points.
  Task     1 has      13344 integration points.
  Task     2 has      13309 integration points.
  Task     3 has      13276 integration points.
  Initializing partition tables, free-atom densities, potentials, etc. across the integration grid (initialize_grid_storage).
  | initialize_grid_storage: Actual outermost partition radius vs. multipole_radius_free
  | (-- VB: in principle, multipole_radius_free should be larger, hence this output)
  | Species        1: Confinement radius =              6.000000000000000 AA, multipole_radius_free =              6.064445521808699 AA.
  | Species        1: outer_partition_radius set to              6.064445521808699 AA .
  | Original list of interatomic distances with           2 x          2 entries is created.
  | Net number of integration points:    53260
  | of which are non-zero points    :    49990
  Obtaining max. number of non-zero basis functions in each batch (get_n_compute_maxes).
  | Maximal number of non-zero basis functions:       78 in task     0
  | Maximal number of non-zero basis functions:       78 in task     1
  | Maximal number of non-zero basis functions:       78 in task     2
  | Maximal number of non-zero basis functions:       78 in task     3
  Selecting the method for density update.
  Loop over occupied states selected for charge density update.
  Integrating Hamiltonian matrix: batch-based integration.
  Time summed over all CPUs for integration: real work        0.171 s, elapsed        0.172 s
  Integrating overlap matrix.
  Time summed over all CPUs for integration: real work        0.061 s, elapsed        0.062 s

  Reading cluster restart information from file restart
  Writing Kohn-Sham eigenvalues.

  State    Occupation    Eigenvalue [Ha]    Eigenvalue [eV]
      1       2.00000         -18.889873         -514.01961
      2       2.00000         -18.889654         -514.01363
      3       2.00000          -1.267293          -34.48480
      4       2.00000          -0.701439          -19.08712
      5       2.00000          -0.502548          -13.67503
      6       2.00000          -0.502548          -13.67503
      7       2.00000          -0.494805          -13.46433
      8       1.00000          -0.186832           -5.08397
      9       1.00000          -0.186832           -5.08397
     10       0.00000           0.098748            2.68707
     11       0.00000           0.105369            2.86723
     12       0.00000           0.133112            3.62217
     13       0.00000           0.000000            0.00000
     14       0.00000           0.000000            0.00000

  Highest occupied state (VBM) at     -5.08396632 eV
  | Occupation number:      1.00000305

  Lowest unoccupied state (CBM) at    -5.08396626 eV
  | Occupation number:      0.99999695

  Overall HOMO-LUMO gap:      0.00000005 eV.
*** get_ev_sum_p0 expected pure occ_numbers
*** sum(occ_numbers) =  1.6000000000208541E+01 instead of  1.5000000000000000E+01
  Calculating total energy contributions from superposition of free atom densities.
*** get_entropy_correction expected pure occ_numbers
*** sum(occ_numbers) =  1.6000000000208541E+01 instead of  1.5000000000000000E+01
*** get_penalty_energy expected pure occ_numbers
*** sum(occ_numbers) =  1.6000000000208541E+01 instead of  1.5000000000000000E+01

  Total energy components:
  | Sum of eigenvalues            :         -82.86998565 Ha       -2255.00704296 eV
  | XC energy correction          :         -16.82076998 Ha        -457.71643950 eV
  | XC potential correction       :          21.62723246 Ha         588.50693812 eV
  | Free-atom electrostatic energy:         -71.50995483 Ha       -1945.88487651 eV
  | Hartree energy correction     :           0.00000000 Ha           0.00000000 eV
  | Entropy correction            :          -0.00020734 Ha          -0.00564190 eV
  | ---------------------------
  | Total energy                  :        -149.57347800 Ha       -4070.10142084 eV
  | Total energy, T -> 0          :        -149.57368534 Ha       -4070.10706274 eV  <-- do not rely on this value for anything but (periodic) metals
  | Electronic free energy        :        -149.57389267 Ha       -4070.11270464 eV

  Derived energy quantities:
  | Kinetic energy                :         150.56069422 Ha        4096.96494098 eV
  | Electrostatic energy          :        -283.31340224 Ha       -7709.34992232 eV
  | Energy correction for multipole
  | error in Hartree potential    :           0.00000000 Ha           0.00000000 eV
  | Sum of eigenvalues per atom                           :       -1127.50352148 eV
  | Total energy (T->0) per atom                          :       -2035.05353137 eV  <-- do not rely on this value for anything but (periodic) metals
  | Electronic free energy per atom                       :       -2035.05635232 eV
  Initialize hartree_potential_storage
  Max. number of atoms included in rho_multipole:            2

  End scf initialization - timings             :  max(cpu_time)    wall_clock(cpu1)
  | Time for scf. initialization               :        0.129 s           0.128 s
  | Boundary condition initialization          :        0.000 s           0.001 s
  | Integration                                :        0.059 s           0.059 s
  | Solution of K.-S. eqns.                    :        0.006 s           0.006 s
  | Grid partitioning                          :        0.023 s           0.023 s
  | Preloading free-atom quantities on grid    :        0.017 s           0.017 s
  | Free-atom superposition energy             :        0.008 s           0.009 s
  | Total energy evaluation                    :        0.002 s           0.002 s
------------------------------------------------------------

------------------------------------------------------------
          Initial SCF-cycle to compute last known
          density from restart information.

  Date     :  20190722, Time     :  144416.958
------------------------------------------------------------
*** scf_solver:charge expected kweighted occ_numbers
*** sum(occ_numbers) =  1.6000000000208541E+01 instead of  1.5000000000000000E+01
  Evaluating new KS density.
*** update_density_and_forces_p2 expected kweighted occ_numbers
*** sum(occ_numbers) =  1.6000000000208541E+01 instead of  1.5000000000000000E+01
  Integration grid: deviation in total charge (<rho> - N_e) =   1.000000E+00

  Evaluating partitioned Hartree potential by multipole expansion.
  | Analytical far-field extrapolation by fixed multipoles:
  | Hartree multipole sum: apparent total charge =  -0.177415E-06
  Summing up the Hartree potential.
  Time summed over all CPUs for potential: real work        0.098 s, elapsed        0.099 s
  | RMS charge density error from multipole expansion :   0.646460E-03

  Integrating Hamiltonian matrix: batch-based integration.
  Time summed over all CPUs for integration: real work        0.167 s, elapsed        0.169 s

  Updating Kohn-Sham eigenvalues, eigenvectors, occupation numbers, and Fermi level.
  Solving generalized eigenproblem
  Updating Kohn-Sham eigenvalues and eigenfunctions.
  Transforming overlap matrix and checking for singularities.
  Overlap matrix is nonsingular:
  | Lowest eigenvalue:  0.185756E-03
  Solving real generalised eigenvalue problem by standard LAPACK (fast)
  Determining occupation numbers for Kohn-Sham eigenstates.
  | Chemical potential (Fermi level) in eV                 : -.50887375E+01
  | Error in electron count due to remaining E_F inaccuracy: 0.15461410E-10
  | Maximum occupation number of highest empty state:  0.00E+00

  Highest occupied state (VBM) at    -13.46433317 eV
  | Occupation number:      2.00000000

  Lowest unoccupied state (CBM) at    -5.08396983 eV
  | Occupation number:      0.50014854

  Overall HOMO-LUMO gap:      8.38036334 eV.

  Total energy components:
  | Sum of eigenvalues            :         -82.68315458 Ha       -2249.92311103 eV
  | XC energy correction          :         -16.91595019 Ha        -460.30642492 eV
  | XC potential correction       :          21.75097681 Ha         591.87419324 eV
  | Free-atom electrostatic energy:         -71.50995483 Ha       -1945.88487651 eV
  | Hartree energy correction     :          -0.65623126 Ha         -17.85696114 eV
  | Entropy correction            :          -0.00016515 Ha          -0.00449404 eV
  | ---------------------------
  | Total energy                  :        -150.01431406 Ha       -4082.09718037 eV
  | Total energy, T -> 0          :        -150.01447921 Ha       -4082.10167441 eV  <-- do not rely on this value for anything but (periodic) metals
  | Electronic free energy        :        -150.01464436 Ha       -4082.10616845 eV

  Derived energy quantities:
  | Kinetic energy                :         150.39445871 Ha        4092.44144253 eV
  | Electrostatic energy          :        -283.49282257 Ha       -7714.23219798 eV
  | Energy correction for multipole
  | error in Hartree potential    :          -0.00059256 Ha          -0.01612449 eV
  | Sum of eigenvalues per atom                           :       -1124.96155552 eV
  | Total energy (T->0) per atom                          :       -2041.05083720 eV  <-- do not rely on this value for anything but (periodic) metals
  | Electronic free energy per atom                       :       -2041.05308422 eV

  Self-consistency convergence accuracy:
  | Change of charge density      :  0.1358E+00
  | Change of sum of eigenvalues  :  0.5084E+01 eV
  | Change of total energy        : -0.1200E+02 eV

  End self-consistency iteration #     0       :  max(cpu_time)    wall_clock(cpu1)
  | Time for this iteration                    :        0.119 s           0.117 s
  | Charge density update                      :        0.033 s           0.031 s
  | Density mixing                             :        0.000 s           0.001 s
  | Hartree multipole update                   :        0.005 s           0.004 s
  | Hartree multipole summation                :        0.026 s           0.026 s
  | Integration                                :        0.043 s           0.042 s
  | Solution of K.-S. eqns.                    :        0.009 s           0.010 s
  | Total energy evaluation                    :        0.000 s           0.002 s
------------------------------------------------------------

------------------------------------------------------------
          Begin self-consistency iteration #    1

  Date     :  20190722, Time     :  144417.077
------------------------------------------------------------
  Evaluating new KS density.
  Integration grid: deviation in total charge (<rho> - N_e) =   1.546141E-11
  Pulay mixing of updated and previous charge densities.

  Evaluating partitioned Hartree potential by multipole expansion.
  | Analytical far-field extrapolation by fixed multipoles:
  | Hartree multipole sum: apparent total charge =   0.200000E+00
  Summing up the Hartree potential.
  Time summed over all CPUs for potential: real work        0.096 s, elapsed        0.096 s
  | RMS charge density error from multipole expansion :   0.568934E-03

  Integrating Hamiltonian matrix: batch-based integration.
  Time summed over all CPUs for integration: real work        0.165 s, elapsed        0.167 s

  Updating Kohn-Sham eigenvalues, eigenvectors, occupation numbers, and Fermi level.
  Solving generalized eigenproblem
  Updating Kohn-Sham eigenvalues and eigenfunctions.
  Solving real generalised eigenvalue problem by standard LAPACK (fast)
  Determining occupation numbers for Kohn-Sham eigenstates.
  | Chemical potential (Fermi level) in eV                 : -.81702213E+01
  | Error in electron count due to remaining E_F inaccuracy: 0.77733375E-11
  | Maximum occupation number of highest empty state:  0.00E+00

  Writing Kohn-Sham eigenvalues.

  State    Occupation    Eigenvalue [Ha]    Eigenvalue [eV]
      1       2.00000         -19.044718         -518.23316
      2       2.00000         -19.044500         -518.22721
      3       2.00000          -1.391441          -37.86304
      4       2.00000          -0.812974          -22.12216
      5       2.00000          -0.616513          -16.77617
      6       2.00000          -0.616512          -16.77614
      7       2.00000          -0.606202          -16.49561
      8       0.50132          -0.300075           -8.16547
      9       0.49868          -0.300074           -8.16544
     10       0.00000           0.042790            1.16439
     11       0.00000           0.050113            1.36365
     12       0.00000           0.078170            2.12711
     13       0.00000           0.078170            2.12712
     14       0.00000           0.157547            4.28708

  Highest occupied state (VBM) at    -16.49560630 eV
  | Occupation number:      2.00000000

  Lowest unoccupied state (CBM) at    -8.16546665 eV
  | Occupation number:      0.50132230

  Overall HOMO-LUMO gap:      8.33013965 eV.

  Total energy components:
  | Sum of eigenvalues            :         -84.56579673 Ha       -2301.15241041 eV
  | XC energy correction          :         -16.76353526 Ha        -456.15900358 eV
  | XC potential correction       :          21.55138840 Ha         586.44311622 eV
  | Free-atom electrostatic energy:         -71.50995483 Ha       -1945.88487651 eV
  | Hartree energy correction     :           1.36996809 Ha          37.27872844 eV
  | Entropy correction            :          -0.00016515 Ha          -0.00449403 eV
  | ---------------------------
  | Total energy                  :        -149.91793034 Ha       -4079.47444584 eV
  | Total energy, T -> 0          :        -149.91809549 Ha       -4079.47893987 eV  <-- do not rely on this value for anything but (periodic) metals
  | Electronic free energy        :        -149.91826064 Ha       -4079.48343390 eV

  Derived energy quantities:
  | Kinetic energy                :         149.84166533 Ha        4077.39916946 eV
  | Electrostatic energy          :        -282.99606041 Ha       -7700.71461172 eV
  | Energy correction for multipole
  | error in Hartree potential    :          -0.00047716 Ha          -0.01298415 eV
  | Sum of eigenvalues per atom                           :       -1150.57620521 eV
  | Total energy (T->0) per atom                          :       -2039.73946993 eV  <-- do not rely on this value for anything but (periodic) metals
  | Electronic free energy per atom                       :       -2039.74171695 eV

  Self-consistency convergence accuracy:
  | Change of charge density      :  0.2168E+00
  | Change of sum of eigenvalues  : -0.5123E+02 eV
  | Change of total energy        :  0.2623E+01 eV

  End self-consistency iteration #     1       :  max(cpu_time)    wall_clock(cpu1)
  | Time for this iteration                    :        0.106 s           0.104 s
  | Charge density update                      :        0.030 s           0.029 s
  | Density mixing                             :        0.001 s           0.001 s
  | Hartree multipole update                   :        0.004 s           0.004 s
  | Hartree multipole summation                :        0.026 s           0.025 s
  | Integration                                :        0.042 s           0.042 s
  | Solution of K.-S. eqns.                    :        0.001 s           0.001 s
  | Total energy evaluation                    :        0.000 s           0.001 s
------------------------------------------------------------

------------------------------------------------------------
          Begin self-consistency iteration #    2

  Date     :  20190722, Time     :  144417.182
------------------------------------------------------------
  Evaluating new KS density.
  Integration grid: deviation in total charge (<rho> - N_e) =   7.702283E-12
  Pulay mixing of updated and previous charge densities.

  Evaluating partitioned Hartree potential by multipole expansion.
  | Analytical far-field extrapolation by fixed multipoles:
  | Hartree multipole sum: apparent total charge =   0.551818E+00
  Summing up the Hartree potential.
  Time summed over all CPUs for potential: real work        0.096 s, elapsed        0.096 s
  | RMS charge density error from multipole expansion :   0.499240E-03

  Integrating Hamiltonian matrix: batch-based integration.
  Time summed over all CPUs for integration: real work        0.165 s, elapsed        0.167 s

  Updating Kohn-Sham eigenvalues, eigenvectors, occupation numbers, and Fermi level.
  Solving generalized eigenproblem
  Updating Kohn-Sham eigenvalues and eigenfunctions.
  Solving real generalised eigenvalue problem by standard LAPACK (fast)
  Determining occupation numbers for Kohn-Sham eigenstates.
  | Chemical potential (Fermi level) in eV                 : -.13092035E+02
  | Error in electron count due to remaining E_F inaccuracy: -.96278541E-12
  | Maximum occupation number of highest empty state:  0.00E+00

  Highest occupied state (VBM) at    -21.31574137 eV
  | Occupation number:      2.00000000

  Lowest unoccupied state (CBM) at   -13.08756719 eV
  | Occupation number:      0.52744430

  Overall HOMO-LUMO gap:      8.22817418 eV.

  Total energy components:
  | Sum of eigenvalues            :         -87.47611588 Ha       -2380.34622367 eV
  | XC energy correction          :         -16.54917084 Ha        -450.32585082 eV
  | XC potential correction       :          21.27064803 Ha         578.80378200 eV
  | Free-atom electrostatic energy:         -71.50995483 Ha       -1945.88487651 eV
  | Hartree energy correction     :           4.43975383 Ha         120.81184858 eV
  | Entropy correction            :          -0.00016500 Ha          -0.00448985 eV
  | ---------------------------
  | Total energy                  :        -149.82483969 Ha       -4076.94132041 eV
  | Total energy, T -> 0          :        -149.82500469 Ha       -4076.94581026 eV  <-- do not rely on this value for anything but (periodic) metals
  | Electronic free energy        :        -149.82516969 Ha       -4076.95030011 eV

  Derived energy quantities:
  | Kinetic energy                :         149.14691740 Ha        4058.49411643 eV
  | Electrostatic energy          :        -282.42258625 Ha       -7685.10958603 eV
  | Energy correction for multipole
  | error in Hartree potential    :          -0.00037145 Ha          -0.01010761 eV
  | Sum of eigenvalues per atom                           :       -1190.17311184 eV
  | Total energy (T->0) per atom                          :       -2038.47290513 eV  <-- do not rely on this value for anything but (periodic) metals
  | Electronic free energy per atom                       :       -2038.47515005 eV

  Self-consistency convergence accuracy:
  | Change of charge density      :  0.1326E+00
  | Change of sum of eigenvalues  : -0.7919E+02 eV
  | Change of total energy        :  0.2533E+01 eV

  End self-consistency iteration #     2       :  max(cpu_time)    wall_clock(cpu1)
  | Time for this iteration                    :        0.105 s           0.105 s
  | Charge density update                      :        0.030 s           0.030 s
  | Density mixing                             :        0.002 s           0.002 s
  | Hartree multipole update                   :        0.004 s           0.004 s
  | Hartree multipole summation                :        0.026 s           0.025 s
  | Integration                                :        0.042 s           0.042 s
  | Solution of K.-S. eqns.                    :        0.001 s           0.001 s
  | Total energy evaluation                    :        0.001 s           0.001 s
------------------------------------------------------------

------------------------------------------------------------
          Begin self-consistency iteration #    3

  Date     :  20190722, Time     :  144417.288
------------------------------------------------------------
  Evaluating new KS density.
  Integration grid: deviation in total charge (<rho> - N_e) =  -8.633094E-13
  Pulay mixing of updated and previous charge densities.

  Evaluating partitioned Hartree potential by multipole expansion.
  | Analytical far-field extrapolation by fixed multipoles:
  | Hartree multipole sum: apparent total charge =   0.846557E+00
  Summing up the Hartree potential.
  Time summed over all CPUs for potential: real work        0.095 s, elapsed        0.096 s
  | RMS charge density error from multipole expansion :   0.477239E-03

  Integrating Hamiltonian matrix: batch-based integration.
  Time summed over all CPUs for integration: real work        0.165 s, elapsed        0.166 s

  Updating Kohn-Sham eigenvalues, eigenvectors, occupation numbers, and Fermi level.
  Solving generalized eigenproblem
  Updating Kohn-Sham eigenvalues and eigenfunctions.
  Solving real generalised eigenvalue problem by standard LAPACK (fast)
  Determining occupation numbers for Kohn-Sham eigenstates.
  | Chemical potential (Fermi level) in eV                 : -.16191291E+02
  | Error in electron count due to remaining E_F inaccuracy: -.36699355E-09
  | Maximum occupation number of highest empty state:  0.00E+00

  Highest occupied state (VBM) at    -24.36517781 eV
  | Occupation number:      2.00000000

  Lowest unoccupied state (CBM) at   -16.19124762 eV
  | Occupation number:      0.99508101

  Overall HOMO-LUMO gap:      8.17393019 eV.

  Total energy components:
  | Sum of eigenvalues            :         -89.15979956 Ha       -2426.16158766 eV
  | XC energy correction          :         -16.46618641 Ha        -448.06772959 eV
  | XC potential correction       :          21.16185756 Ha         575.84344276 eV
  | Free-atom electrostatic energy:         -71.50995483 Ha       -1945.88487651 eV
  | Hartree energy correction     :           6.17721607 Ha         168.09060169 eV
  | Entropy correction            :          -0.00010565 Ha          -0.00287497 eV
  | ---------------------------
  | Total energy                  :        -149.79686716 Ha       -4076.18014930 eV
  | Total energy, T -> 0          :        -149.79697282 Ha       -4076.18302427 eV  <-- do not rely on this value for anything but (periodic) metals
  | Electronic free energy        :        -149.79707847 Ha       -4076.18589924 eV

  Derived energy quantities:
  | Kinetic energy                :         149.24235223 Ha        4061.09103017 eV
  | Electrostatic energy          :        -282.57303298 Ha       -7689.20344988 eV
  | Energy correction for multipole
  | error in Hartree potential    :          -0.00046850 Ha          -0.01274867 eV
  | Sum of eigenvalues per atom                           :       -1213.08079383 eV
  | Total energy (T->0) per atom                          :       -2038.09151214 eV  <-- do not rely on this value for anything but (periodic) metals
  | Electronic free energy per atom                       :       -2038.09294962 eV

  Self-consistency convergence accuracy:
  | Change of charge density      :  0.5964E-01
  | Change of sum of eigenvalues  : -0.4582E+02 eV
  | Change of total energy        :  0.7612E+00 eV

  End self-consistency iteration #     3       :  max(cpu_time)    wall_clock(cpu1)
  | Time for this iteration                    :        0.104 s           0.104 s
  | Charge density update                      :        0.030 s           0.030 s
  | Density mixing                             :        0.001 s           0.001 s
  | Hartree multipole update                   :        0.004 s           0.004 s
  | Hartree multipole summation                :        0.025 s           0.025 s
  | Integration                                :        0.042 s           0.041 s
  | Solution of K.-S. eqns.                    :        0.001 s           0.002 s
  | Total energy evaluation                    :        0.000 s           0.001 s
------------------------------------------------------------

------------------------------------------------------------
          Begin self-consistency iteration #    4

  Date     :  20190722, Time     :  144417.393
------------------------------------------------------------
  Evaluating new KS density.
  Integration grid: deviation in total charge (<rho> - N_e) =  -3.667271E-10
  Pulay mixing of updated and previous charge densities.

  Evaluating partitioned Hartree potential by multipole expansion.
  | Analytical far-field extrapolation by fixed multipoles:
  | Hartree multipole sum: apparent total charge =   0.102191E+01
  Summing up the Hartree potential.
  Time summed over all CPUs for potential: real work        0.096 s, elapsed        0.096 s
  | RMS charge density error from multipole expansion :   0.484841E-03

  Integrating Hamiltonian matrix: batch-based integration.
  Time summed over all CPUs for integration: real work        0.166 s, elapsed        0.167 s

  Updating Kohn-Sham eigenvalues, eigenvectors, occupation numbers, and Fermi level.
  Solving generalized eigenproblem
  Updating Kohn-Sham eigenvalues and eigenfunctions.
  Solving real generalised eigenvalue problem by standard LAPACK (fast)
  Determining occupation numbers for Kohn-Sham eigenstates.
  | Chemical potential (Fermi level) in eV                 : -.17980559E+02
  | Error in electron count due to remaining E_F inaccuracy: -.29382718E-10
  | Maximum occupation number of highest empty state:  0.00E+00

  Highest occupied state (VBM) at    -26.13458296 eV
  | Occupation number:      2.00000000

  Lowest unoccupied state (CBM) at   -17.97690720 eV
  | Occupation number:      0.60554391

  Overall HOMO-LUMO gap:      8.15767576 eV.

  Total energy components:
  | Sum of eigenvalues            :         -90.12780892 Ha       -2452.50246258 eV
  | XC energy correction          :         -16.42236495 Ha        -446.87528700 eV
  | XC potential correction       :          21.10448498 Ha         574.28225553 eV
  | Free-atom electrostatic energy:         -71.50995483 Ha       -1945.88487651 eV
  | Hartree energy correction     :           7.16204113 Ha         194.88905504 eV
  | Entropy correction            :          -0.00016287 Ha          -0.00443179 eV
  | ---------------------------
  | Total energy                  :        -149.79360258 Ha       -4076.09131552 eV
  | Total energy, T -> 0          :        -149.79376545 Ha       -4076.09574732 eV  <-- do not rely on this value for anything but (periodic) metals
  | Electronic free energy        :        -149.79392831 Ha       -4076.10017911 eV

  Derived energy quantities:
  | Kinetic energy                :         149.30419035 Ha        4062.77373099 eV
  | Electrostatic energy          :        -282.67542798 Ha       -7691.98975951 eV
  | Energy correction for multipole
  | error in Hartree potential    :          -0.00053303 Ha          -0.01450452 eV
  | Sum of eigenvalues per atom                           :       -1226.25123129 eV
  | Total energy (T->0) per atom                          :       -2038.04787366 eV  <-- do not rely on this value for anything but (periodic) metals
  | Electronic free energy per atom                       :       -2038.05008955 eV

  Self-consistency convergence accuracy:
  | Change of charge density      :  0.1756E+00
  | Change of sum of eigenvalues  : -0.2634E+02 eV
  | Change of total energy        :  0.8883E-01 eV

  End self-consistency iteration #     4       :  max(cpu_time)    wall_clock(cpu1)
  | Time for this iteration                    :        0.105 s           0.104 s
  | Charge density update                      :        0.030 s           0.029 s
  | Density mixing                             :        0.002 s           0.002 s
  | Hartree multipole update                   :        0.004 s           0.004 s
  | Hartree multipole summation                :        0.025 s           0.025 s
  | Integration                                :        0.042 s           0.042 s
  | Solution of K.-S. eqns.                    :        0.001 s           0.001 s
  | Total energy evaluation                    :        0.001 s           0.001 s
------------------------------------------------------------

------------------------------------------------------------
          Begin self-consistency iteration #    5

  Date     :  20190722, Time     :  144417.498
------------------------------------------------------------
  Evaluating new KS density.
  Integration grid: deviation in total charge (<rho> - N_e) =  -2.955503E-11
  Pulay mixing of updated and previous charge densities.

  Evaluating partitioned Hartree potential by multipole expansion.
  | Analytical far-field extrapolation by fixed multipoles:
  | Hartree multipole sum: apparent total charge =   0.993438E+00
  Summing up the Hartree potential.
  Time summed over all CPUs for potential: real work        0.096 s, elapsed        0.097 s
  | RMS charge density error from multipole expansion :   0.482530E-03

  Integrating Hamiltonian matrix: batch-based integration.
  Time summed over all CPUs for integration: real work        0.166 s, elapsed        0.167 s

  Updating Kohn-Sham eigenvalues, eigenvectors, occupation numbers, and Fermi level.
  Solving generalized eigenproblem
  Updating Kohn-Sham eigenvalues and eigenfunctions.
  Solving real generalised eigenvalue problem by standard LAPACK (fast)
  Determining occupation numbers for Kohn-Sham eigenstates.
  | Chemical potential (Fermi level) in eV                 : -.17479487E+02
  | Error in electron count due to remaining E_F inaccuracy: -.69607609E-09
  | Maximum occupation number of highest empty state:  0.00E+00

  Highest occupied state (VBM) at    -25.64693509 eV
  | Occupation number:      2.00000000

  Lowest unoccupied state (CBM) at   -17.47535661 eV
  | Occupation number:      0.55909992

  Overall HOMO-LUMO gap:      8.17157847 eV.

  Total energy components:
  | Sum of eigenvalues            :         -89.82281355 Ha       -2444.20311630 eV
  | XC energy correction          :         -16.44795638 Ha        -447.57166540 eV
  | XC potential correction       :          21.13800186 Ha         575.19429608 eV
  | Free-atom electrostatic energy:         -71.50995483 Ha       -1945.88487651 eV
  | Hartree energy correction     :           6.84961716 Ha         186.38756620 eV
  | Entropy correction            :          -0.00016444 Ha          -0.00447458 eV
  | ---------------------------
  | Total energy                  :        -149.79310575 Ha       -4076.07779593 eV
  | Total energy, T -> 0          :        -149.79327018 Ha       -4076.08227051 eV  <-- do not rely on this value for anything but (periodic) metals
  | Electronic free energy        :        -149.79343462 Ha       -4076.08674509 eV

  Derived energy quantities:
  | Kinetic energy                :         149.43773933 Ha        4066.40778371 eV
  | Electrostatic energy          :        -282.78288869 Ha       -7694.91391424 eV
  | Energy correction for multipole
  | error in Hartree potential    :          -0.00055371 Ha          -0.01506731 eV
  | Sum of eigenvalues per atom                           :       -1222.10155815 eV
  | Total energy (T->0) per atom                          :       -2038.04113525 eV  <-- do not rely on this value for anything but (periodic) metals
  | Electronic free energy per atom                       :       -2038.04337255 eV

  Self-consistency convergence accuracy:
  | Change of charge density      :  0.4202E-01
  | Change of sum of eigenvalues  :  0.8299E+01 eV
  | Change of total energy        :  0.1352E-01 eV

  End self-consistency iteration #     5       :  max(cpu_time)    wall_clock(cpu1)
  | Time for this iteration                    :        0.105 s           0.105 s
  | Charge density update                      :        0.030 s           0.030 s
  | Density mixing                             :        0.002 s           0.002 s
  | Hartree multipole update                   :        0.004 s           0.004 s
  | Hartree multipole summation                :        0.026 s           0.025 s
  | Integration                                :        0.042 s           0.042 s
  | Solution of K.-S. eqns.                    :        0.001 s           0.001 s
  | Total energy evaluation                    :        0.001 s           0.001 s
------------------------------------------------------------

------------------------------------------------------------
          Begin self-consistency iteration #    6

  Date     :  20190722, Time     :  144417.604
------------------------------------------------------------
  Evaluating new KS density.
  Integration grid: deviation in total charge (<rho> - N_e) =  -6.960015E-10
  Pulay mixing of updated and previous charge densities.

  Evaluating partitioned Hartree potential by multipole expansion.
  | Analytical far-field extrapolation by fixed multipoles:
  | Hartree multipole sum: apparent total charge =   0.998931E+00
  Summing up the Hartree potential.
  Time summed over all CPUs for potential: real work        0.096 s, elapsed        0.097 s
  | RMS charge density error from multipole expansion :   0.493997E-03

  Integrating Hamiltonian matrix: batch-based integration.
  Time summed over all CPUs for integration: real work        0.166 s, elapsed        0.167 s

  Updating Kohn-Sham eigenvalues, eigenvectors, occupation numbers, and Fermi level.
  Solving generalized eigenproblem
  Updating Kohn-Sham eigenvalues and eigenfunctions.
  Solving real generalised eigenvalue problem by standard LAPACK (fast)
  Determining occupation numbers for Kohn-Sham eigenstates.
  | Chemical potential (Fermi level) in eV                 : -.17450318E+02
  | Error in electron count due to remaining E_F inaccuracy: -.18677468E-08
  | Maximum occupation number of highest empty state:  0.00E+00

  Highest occupied state (VBM) at    -25.61350027 eV
  | Occupation number:      2.00000000

  Lowest unoccupied state (CBM) at   -17.45016179 eV
  | Occupation number:      0.98239552

  Overall HOMO-LUMO gap:      8.16333848 eV.

  Total energy components:
  | Sum of eigenvalues            :         -89.80053846 Ha       -2443.59698025 eV
  | XC energy correction          :         -16.45294600 Ha        -447.70743984 eV
  | XC potential correction       :          21.14464162 Ha         575.37497318 eV
  | Free-atom electrostatic energy:         -71.50995483 Ha       -1945.88487651 eV
  | Hartree energy correction     :           6.82541615 Ha         185.72902328 eV
  | Entropy correction            :          -0.00010984 Ha          -0.00298882 eV
  | ---------------------------
  | Total energy                  :        -149.79338152 Ha       -4076.08530013 eV
  | Total energy, T -> 0          :        -149.79349136 Ha       -4076.08828895 eV  <-- do not rely on this value for anything but (periodic) metals
  | Electronic free energy        :        -149.79360120 Ha       -4076.09127777 eV

  Derived energy quantities:
  | Kinetic energy                :         149.45433211 Ha        4066.85929627 eV
  | Electrostatic energy          :        -282.79476763 Ha       -7695.23715656 eV
  | Energy correction for multipole
  | error in Hartree potential    :          -0.00054525 Ha          -0.01483695 eV
  | Sum of eigenvalues per atom                           :       -1221.79849013 eV
  | Total energy (T->0) per atom                          :       -2038.04414448 eV  <-- do not rely on this value for anything but (periodic) metals
  | Electronic free energy per atom                       :       -2038.04563889 eV

  Self-consistency convergence accuracy:
  | Change of charge density      :  0.2143E-01
  | Change of sum of eigenvalues  :  0.6061E+00 eV
  | Change of total energy        : -0.7504E-02 eV

  End self-consistency iteration #     6       :  max(cpu_time)    wall_clock(cpu1)
  | Time for this iteration                    :        0.105 s           0.105 s
  | Charge density update                      :        0.030 s           0.030 s
  | Density mixing                             :        0.003 s           0.002 s
  | Hartree multipole update                   :        0.004 s           0.004 s
  | Hartree multipole summation                :        0.025 s           0.025 s
  | Integration                                :        0.042 s           0.042 s
  | Solution of K.-S. eqns.                    :        0.001 s           0.001 s
  | Total energy evaluation                    :        0.000 s           0.001 s
------------------------------------------------------------

------------------------------------------------------------
          Begin self-consistency iteration #    7

  Date     :  20190722, Time     :  144417.711
------------------------------------------------------------
  Evaluating new KS density.
  Integration grid: deviation in total charge (<rho> - N_e) =  -1.867779E-09
  Pulay mixing of updated and previous charge densities.

  Evaluating partitioned Hartree potential by multipole expansion.
  | Analytical far-field extrapolation by fixed multipoles:
  | Hartree multipole sum: apparent total charge =   0.999499E+00
  Summing up the Hartree potential.
  Time summed over all CPUs for potential: real work        0.096 s, elapsed        0.097 s
  | RMS charge density error from multipole expansion :   0.493992E-03

  Integrating Hamiltonian matrix: batch-based integration.
  Time summed over all CPUs for integration: real work        0.165 s, elapsed        0.166 s

  Updating Kohn-Sham eigenvalues, eigenvectors, occupation numbers, and Fermi level.
  Solving generalized eigenproblem
  Updating Kohn-Sham eigenvalues and eigenfunctions.
  Solving real generalised eigenvalue problem by standard LAPACK (fast)
  Determining occupation numbers for Kohn-Sham eigenstates.
  | Chemical potential (Fermi level) in eV                 : -.17448878E+02
  | Error in electron count due to remaining E_F inaccuracy: -.57471006E-09
  | Maximum occupation number of highest empty state:  0.00E+00

  Highest occupied state (VBM) at    -25.61615152 eV
  | Occupation number:      2.00000000

  Lowest unoccupied state (CBM) at   -17.44551778 eV
  | Occupation number:      0.63465105

  Overall HOMO-LUMO gap:      8.17063373 eV.

  Total energy components:
  | Sum of eigenvalues            :         -89.80111310 Ha       -2443.61261696 eV
  | XC energy correction          :         -16.45303980 Ha        -447.70999224 eV
  | XC potential correction       :          21.14476932 Ha         575.37844825 eV
  | Free-atom electrostatic energy:         -71.50995483 Ha       -1945.88487651 eV
  | Hartree energy correction     :           6.82624187 Ha         185.75149225 eV
  | Entropy correction            :          -0.00016142 Ha          -0.00439244 eV
  | ---------------------------
  | Total energy                  :        -149.79309653 Ha       -4076.07754520 eV
  | Total energy, T -> 0          :        -149.79325795 Ha       -4076.08193764 eV  <-- do not rely on this value for anything but (periodic) metals
  | Electronic free energy        :        -149.79341937 Ha       -4076.08633008 eV

  Derived energy quantities:
  | Kinetic energy                :         149.45546740 Ha        4066.89018916 eV
  | Electrostatic energy          :        -282.79552414 Ha       -7695.25774212 eV
  | Energy correction for multipole
  | error in Hartree potential    :          -0.00054507 Ha          -0.01483205 eV
  | Sum of eigenvalues per atom                           :       -1221.80630848 eV
  | Total energy (T->0) per atom                          :       -2038.04096882 eV  <-- do not rely on this value for anything but (periodic) metals
  | Electronic free energy per atom                       :       -2038.04316504 eV

  Self-consistency convergence accuracy:
  | Change of charge density      :  0.1681E+00
  | Change of sum of eigenvalues  : -0.1564E-01 eV
  | Change of total energy        :  0.7755E-02 eV

  End self-consistency iteration #     7       :  max(cpu_time)    wall_clock(cpu1)
  | Time for this iteration                    :        0.106 s           0.105 s
  | Charge density update                      :        0.030 s           0.029 s
  | Density mixing                             :        0.003 s           0.003 s
  | Hartree multipole update                   :        0.004 s           0.004 s
  | Hartree multipole summation                :        0.025 s           0.025 s
  | Integration                                :        0.042 s           0.041 s
  | Solution of K.-S. eqns.                    :        0.001 s           0.002 s
  | Total energy evaluation                    :        0.000 s           0.001 s
------------------------------------------------------------

------------------------------------------------------------
          Begin self-consistency iteration #    8

  Date     :  20190722, Time     :  144417.817
------------------------------------------------------------
  Evaluating new KS density.
  Integration grid: deviation in total charge (<rho> - N_e) =  -5.747474E-10
  Pulay mixing of updated and previous charge densities.

  Evaluating partitioned Hartree potential by multipole expansion.
  | Analytical far-field extrapolation by fixed multipoles:
  | Hartree multipole sum: apparent total charge =   0.999600E+00
  Summing up the Hartree potential.
  Time summed over all CPUs for potential: real work        0.097 s, elapsed        0.098 s
  | RMS charge density error from multipole expansion :   0.494631E-03

  Integrating Hamiltonian matrix: batch-based integration.
  Time summed over all CPUs for integration: real work        0.165 s, elapsed        0.166 s

  Updating Kohn-Sham eigenvalues, eigenvectors, occupation numbers, and Fermi level.
  Solving generalized eigenproblem
  Updating Kohn-Sham eigenvalues and eigenfunctions.
  Solving real generalised eigenvalue problem by standard LAPACK (fast)
  Determining occupation numbers for Kohn-Sham eigenstates.
  | Chemical potential (Fermi level) in eV                 : -.17445328E+02
  | Error in electron count due to remaining E_F inaccuracy: -.40085002E-08
  | Maximum occupation number of highest empty state:  0.00E+00

  Highest occupied state (VBM) at    -25.61316822 eV
  | Occupation number:      2.00000000

  Lowest unoccupied state (CBM) at   -17.44265335 eV
  | Occupation number:      0.70529349

  Overall HOMO-LUMO gap:      8.17051487 eV.

  Total energy components:
  | Sum of eigenvalues            :         -89.79900332 Ha       -2443.55520711 eV
  | XC energy correction          :         -16.45327450 Ha        -447.71637879 eV
  | XC potential correction       :          21.14508551 Ha         575.38705197 eV
  | Free-atom electrostatic energy:         -71.50995483 Ha       -1945.88487651 eV
  | Hartree energy correction     :           6.82402988 Ha         185.69130085 eV
  | Entropy correction            :          -0.00015638 Ha          -0.00425544 eV
  | ---------------------------
  | Total energy                  :        -149.79311727 Ha       -4076.07810958 eV
  | Total energy, T -> 0          :        -149.79327366 Ha       -4076.08236502 eV  <-- do not rely on this value for anything but (periodic) metals
  | Electronic free energy        :        -149.79343004 Ha       -4076.08662046 eV

  Derived energy quantities:
  | Kinetic energy                :         149.45511267 Ha        4066.88053643 eV
  | Electrostatic energy          :        -282.79495544 Ha       -7695.24226722 eV
  | Energy correction for multipole
  | error in Hartree potential    :          -0.00054412 Ha          -0.01480624 eV
  | Sum of eigenvalues per atom                           :       -1221.77760356 eV
  | Total energy (T->0) per atom                          :       -2038.04118251 eV  <-- do not rely on this value for anything but (periodic) metals
  | Electronic free energy per atom                       :       -2038.04331023 eV

  Self-consistency convergence accuracy:
  | Change of charge density      :  0.4634E-01
  | Change of sum of eigenvalues  :  0.5741E-01 eV
  | Change of total energy        : -0.5644E-03 eV

  End self-consistency iteration #     8       :  max(cpu_time)    wall_clock(cpu1)
  | Time for this iteration                    :        0.106 s           0.106 s
  | Charge density update                      :        0.030 s           0.030 s
  | Density mixing                             :        0.002 s           0.003 s
  | Hartree multipole update                   :        0.004 s           0.003 s
  | Hartree multipole summation                :        0.026 s           0.026 s
  | Integration                                :        0.042 s           0.041 s
  | Solution of K.-S. eqns.                    :        0.001 s           0.002 s
  | Total energy evaluation                    :        0.001 s           0.001 s
------------------------------------------------------------

------------------------------------------------------------
          Begin self-consistency iteration #    9

  Date     :  20190722, Time     :  144417.924
------------------------------------------------------------
  Evaluating new KS density.
  Integration grid: deviation in total charge (<rho> - N_e) =  -4.008502E-09
  Pulay mixing of updated and previous charge densities.

  Evaluating partitioned Hartree potential by multipole expansion.
  | Analytical far-field extrapolation by fixed multipoles:
  | Hartree multipole sum: apparent total charge =   0.100005E+01
  Summing up the Hartree potential.
  Time summed over all CPUs for potential: real work        0.096 s, elapsed        0.097 s
  | RMS charge density error from multipole expansion :   0.495264E-03

  Integrating Hamiltonian matrix: batch-based integration.
  Time summed over all CPUs for integration: real work        0.165 s, elapsed        0.166 s

  Updating Kohn-Sham eigenvalues, eigenvectors, occupation numbers, and Fermi level.
  Solving generalized eigenproblem
  Updating Kohn-Sham eigenvalues and eigenfunctions.
  Solving real generalised eigenvalue problem by standard LAPACK (fast)
  Determining occupation numbers for Kohn-Sham eigenstates.
  | Chemical potential (Fermi level) in eV                 : -.17443529E+02
  | Error in electron count due to remaining E_F inaccuracy: -.58619776E-13
  | Maximum occupation number of highest empty state:  0.00E+00

  Highest occupied state (VBM) at    -25.61234118 eV
  | Occupation number:      2.00000000

  Lowest unoccupied state (CBM) at   -17.44021813 eV
  | Occupation number:      0.63965730

  Overall HOMO-LUMO gap:      8.17212305 eV.

  Total energy components:
  | Sum of eigenvalues            :         -89.79766432 Ha       -2443.51877096 eV
  | XC energy correction          :         -16.45356372 Ha        -447.72424882 eV
  | XC potential correction       :          21.14547288 Ha         575.39759289 eV
  | Free-atom electrostatic energy:         -71.50995483 Ha       -1945.88487651 eV
  | Hartree energy correction     :           6.82261259 Ha         185.65273436 eV
  | Entropy correction            :          -0.00016113 Ha          -0.00438468 eV
  | ---------------------------
  | Total energy                  :        -149.79309741 Ha       -4076.07756904 eV
  | Total energy, T -> 0          :        -149.79325854 Ha       -4076.08195372 eV  <-- do not rely on this value for anything but (periodic) metals
  | Electronic free energy        :        -149.79341968 Ha       -4076.08633841 eV

  Derived energy quantities:
  | Kinetic energy                :         149.45611121 Ha        4066.90770790 eV
  | Electrostatic energy          :        -282.79564489 Ha       -7695.26102812 eV
  | Energy correction for multipole
  | error in Hartree potential    :          -0.00054354 Ha          -0.01479053 eV
  | Sum of eigenvalues per atom                           :       -1221.75938548 eV
  | Total energy (T->0) per atom                          :       -2038.04097686 eV  <-- do not rely on this value for anything but (periodic) metals
  | Electronic free energy per atom                       :       -2038.04316920 eV

  Self-consistency convergence accuracy:
  | Change of charge density      :  0.7079E-01
  | Change of sum of eigenvalues  :  0.3644E-01 eV
  | Change of total energy        :  0.5405E-03 eV

  End self-consistency iteration #     9       :  max(cpu_time)    wall_clock(cpu1)
  | Time for this iteration                    :        0.106 s           0.106 s
  | Charge density update                      :        0.030 s           0.030 s
  | Density mixing                             :        0.003 s           0.003 s
  | Hartree multipole update                   :        0.004 s           0.004 s
  | Hartree multipole summation                :        0.026 s           0.024 s
  | Integration                                :        0.042 s           0.041 s
  | Solution of K.-S. eqns.                    :        0.001 s           0.002 s
  | Total energy evaluation                    :        0.001 s           0.001 s
------------------------------------------------------------

------------------------------------------------------------
          Begin self-consistency iteration #   10

  Date     :  20190722, Time     :  144418.031
------------------------------------------------------------
  Evaluating new KS density.
  Integration grid: deviation in total charge (<rho> - N_e) =   1.669775E-13
  Pulay mixing of updated and previous charge densities.

  Evaluating partitioned Hartree potential by multipole expansion.
  | Analytical far-field extrapolation by fixed multipoles:
  | Hartree multipole sum: apparent total charge =   0.100001E+01
  Summing up the Hartree potential.
  Time summed over all CPUs for potential: real work        0.097 s, elapsed        0.098 s
  | RMS charge density error from multipole expansion :   0.495285E-03

  Integrating Hamiltonian matrix: batch-based integration.
  Time summed over all CPUs for integration: real work        0.165 s, elapsed        0.166 s

  Updating Kohn-Sham eigenvalues, eigenvectors, occupation numbers, and Fermi level.
  Solving generalized eigenproblem
  Updating Kohn-Sham eigenvalues and eigenfunctions.
  Solving real generalised eigenvalue problem by standard LAPACK (fast)
  Determining occupation numbers for Kohn-Sham eigenstates.
  | Chemical potential (Fermi level) in eV                 : -.17442095E+02
  | Error in electron count due to remaining E_F inaccuracy: 0.35527137E-13
  | Maximum occupation number of highest empty state:  0.00E+00

  Highest occupied state (VBM) at    -25.61109125 eV
  | Occupation number:      2.00000000

  Lowest unoccupied state (CBM) at   -17.43775422 eV
  | Occupation number:      0.53930073

  Overall HOMO-LUMO gap:      8.17333703 eV.

  Total energy components:
  | Sum of eigenvalues            :         -89.79684083 Ha       -2443.49636258 eV
  | XC energy correction          :         -16.45364036 Ha        -447.72633422 eV
  | XC potential correction       :          21.14557401 Ha         575.40034477 eV
  | Free-atom electrostatic energy:         -71.50995483 Ha       -1945.88487651 eV
  | Hartree energy correction     :           6.82177972 Ha         185.63007088 eV
  | Entropy correction            :          -0.00016484 Ha          -0.00448544 eV
  | ---------------------------
  | Total energy                  :        -149.79308229 Ha       -4076.07715765 eV
  | Total energy, T -> 0          :        -149.79324713 Ha       -4076.08164310 eV  <-- do not rely on this value for anything but (periodic) metals
  | Electronic free energy        :        -149.79341196 Ha       -4076.08612854 eV

  Derived energy quantities:
  | Kinetic energy                :         149.45643815 Ha        4066.91660440 eV
  | Electrostatic energy          :        -282.79588008 Ha       -7695.26742783 eV
  | Energy correction for multipole
  | error in Hartree potential    :          -0.00054353 Ha          -0.01479020 eV
  | Sum of eigenvalues per atom                           :       -1221.74818129 eV
  | Total energy (T->0) per atom                          :       -2038.04082155 eV  <-- do not rely on this value for anything but (periodic) metals
  | Electronic free energy per atom                       :       -2038.04306427 eV

  Self-consistency convergence accuracy:
  | Change of charge density      :  0.4809E-01
  | Change of sum of eigenvalues  :  0.2241E-01 eV
  | Change of total energy        :  0.4114E-03 eV

  End self-consistency iteration #    10       :  max(cpu_time)    wall_clock(cpu1)
  | Time for this iteration                    :        0.106 s           0.106 s
  | Charge density update                      :        0.030 s           0.029 s
  | Density mixing                             :        0.003 s           0.004 s
  | Hartree multipole update                   :        0.005 s           0.003 s
  | Hartree multipole summation                :        0.025 s           0.026 s
  | Integration                                :        0.042 s           0.041 s
  | Solution of K.-S. eqns.                    :        0.001 s           0.002 s
  | Total energy evaluation                    :        0.000 s           0.001 s
------------------------------------------------------------

------------------------------------------------------------
          Begin self-consistency iteration #   11

  Date     :  20190722, Time     :  144418.138
------------------------------------------------------------
  Evaluating new KS density.
  Integration grid: deviation in total charge (<rho> - N_e) =  -9.947598E-14
  Pulay mixing of updated and previous charge densities.

  Evaluating partitioned Hartree potential by multipole expansion.
  | Analytical far-field extrapolation by fixed multipoles:
  | Hartree multipole sum: apparent total charge =   0.100001E+01
  Summing up the Hartree potential.
  Time summed over all CPUs for potential: real work        0.096 s, elapsed        0.097 s
  | RMS charge density error from multipole expansion :   0.495306E-03

  Integrating Hamiltonian matrix: batch-based integration.
  Time summed over all CPUs for integration: real work        0.166 s, elapsed        0.167 s

  Updating Kohn-Sham eigenvalues, eigenvectors, occupation numbers, and Fermi level.
  Solving generalized eigenproblem
  Updating Kohn-Sham eigenvalues and eigenfunctions.
  Solving real generalised eigenvalue problem by standard LAPACK (fast)
  Determining occupation numbers for Kohn-Sham eigenstates.
  | Chemical potential (Fermi level) in eV                 : -.17441735E+02
  | Error in electron count due to remaining E_F inaccuracy: 0.22737368E-12
  | Maximum occupation number of highest empty state:  0.00E+00

  Highest occupied state (VBM) at    -25.61075361 eV
  | Occupation number:      2.00000000

  Lowest unoccupied state (CBM) at   -17.43732299 eV
  | Occupation number:      0.53264339

  Overall HOMO-LUMO gap:      8.17343062 eV.

  Total energy components:
  | Sum of eigenvalues            :         -89.79662104 Ha       -2443.49038191 eV
  | XC energy correction          :         -16.45366489 Ha        -447.72700168 eV
  | XC potential correction       :          21.14560654 Ha         575.40123016 eV
  | Free-atom electrostatic energy:         -71.50995483 Ha       -1945.88487651 eV
  | Hartree energy correction     :           6.82155232 Ha         185.62388309 eV
  | Entropy correction            :          -0.00016493 Ha          -0.00448811 eV
  | ---------------------------
  | Total energy                  :        -149.79308189 Ha       -4076.07714684 eV
  | Total energy, T -> 0          :        -149.79324683 Ha       -4076.08163495 eV  <-- do not rely on this value for anything but (periodic) metals
  | Electronic free energy        :        -149.79341176 Ha       -4076.08612306 eV

  Derived energy quantities:
  | Kinetic energy                :         149.45652191 Ha        4066.91888360 eV
  | Electrostatic energy          :        -282.79593891 Ha       -7695.26902876 eV
  | Energy correction for multipole
  | error in Hartree potential    :          -0.00054351 Ha          -0.01478964 eV
  | Sum of eigenvalues per atom                           :       -1221.74519095 eV
  | Total energy (T->0) per atom                          :       -2038.04081748 eV  <-- do not rely on this value for anything but (periodic) metals
  | Electronic free energy per atom                       :       -2038.04306153 eV

  Self-consistency convergence accuracy:
  | Change of charge density      :  0.1352E-01
  | Change of sum of eigenvalues  :  0.5981E-02 eV
  | Change of total energy        :  0.1081E-04 eV

  End self-consistency iteration #    11       :  max(cpu_time)    wall_clock(cpu1)
  | Time for this iteration                    :        0.106 s           0.106 s
  | Charge density update                      :        0.030 s           0.029 s
  | Density mixing                             :        0.004 s           0.004 s
  | Hartree multipole update                   :        0.004 s           0.004 s
  | Hartree multipole summation                :        0.026 s           0.024 s
  | Integration                                :        0.042 s           0.043 s
  | Solution of K.-S. eqns.                    :        0.001 s           0.001 s
  | Total energy evaluation                    :        0.000 s           0.001 s
------------------------------------------------------------

------------------------------------------------------------
          Begin self-consistency iteration #   12

  Date     :  20190722, Time     :  144418.245
------------------------------------------------------------
  Evaluating new KS density.
  Integration grid: deviation in total charge (<rho> - N_e) =   2.664535E-13
  Pulay mixing of updated and previous charge densities.

  Evaluating partitioned Hartree potential by multipole expansion.
  | Analytical far-field extrapolation by fixed multipoles:
  | Hartree multipole sum: apparent total charge =   0.999997E+00
  Summing up the Hartree potential.
  Time summed over all CPUs for potential: real work        0.096 s, elapsed        0.097 s
  | RMS charge density error from multipole expansion :   0.495327E-03

  Integrating Hamiltonian matrix: batch-based integration.
  Time summed over all CPUs for integration: real work        0.166 s, elapsed        0.167 s

  Updating Kohn-Sham eigenvalues, eigenvectors, occupation numbers, and Fermi level.
  Solving generalized eigenproblem
  Updating Kohn-Sham eigenvalues and eigenfunctions.
  Solving real generalised eigenvalue problem by standard LAPACK (fast)
  Determining occupation numbers for Kohn-Sham eigenstates.
  | Chemical potential (Fermi level) in eV                 : -.17441366E+02
  | Error in electron count due to remaining E_F inaccuracy: -.22026825E-12
  | Maximum occupation number of highest empty state:  0.00E+00

  Highest occupied state (VBM) at    -25.61035648 eV
  | Occupation number:      2.00000000

  Lowest unoccupied state (CBM) at   -17.43662958 eV
  | Occupation number:      0.50292584

  Overall HOMO-LUMO gap:      8.17372690 eV.

  Total energy components:
  | Sum of eigenvalues            :         -89.79641521 Ha       -2443.48478100 eV
  | XC energy correction          :         -16.45368616 Ha        -447.72758052 eV
  | XC potential correction       :          21.14563484 Ha         575.40200013 eV
  | Free-atom electrostatic energy:         -71.50995483 Ha       -1945.88487651 eV
  | Hartree energy correction     :           6.82134034 Ha         185.61811486 eV
  | Entropy correction            :          -0.00016515 Ha          -0.00449399 eV
  | ---------------------------
  | Total energy                  :        -149.79308102 Ha       -4076.07712303 eV
  | Total energy, T -> 0          :        -149.79324617 Ha       -4076.08161702 eV  <-- do not rely on this value for anything but (periodic) metals
[...]
  | Total energy (T->0) per atom                          :       -2038.04080844 eV  <-- do not rely on this value for anything but (periodic) metals
  | Electronic free energy per atom                       :       -2038.04305546 eV

  Self-consistency convergence accuracy:
  | Change of charge density      :  0.4990E-04
  | Change of sum of eigenvalues  : -0.1576E-05 eV
  | Change of total energy        :  0.3898E-09 eV

  Electronic self-consistency reached - switching on the force computation.

  End self-consistency iteration #    15       :  max(cpu_time)    wall_clock(cpu1)
  | Time for this iteration                    :        0.106 s           0.107 s
  | Charge density & force component update    :        0.030 s           0.030 s
  | Density mixing                             :        0.003 s           0.003 s
  | Hartree multipole update                   :        0.005 s           0.004 s
  | Hartree multipole summation                :        0.025 s           0.025 s
  | Integration                                :        0.042 s           0.042 s
  | Solution of K.-S. eqns.                    :        0.001 s           0.001 s
  | Total energy evaluation                    :        0.000 s           0.001 s
------------------------------------------------------------

------------------------------------------------------------
          Begin self-consistency iteration #   16

  Date     :  20190722, Time     :  144418.676
------------------------------------------------------------
  Evaluating new KS density.
  Integration grid: deviation in total charge (<rho> - N_e) =   2.362555E-13
  Pulay mixing of updated and previous charge densities.

  Evaluating partitioned Hartree potential by multipole expansion.
  | Analytical far-field extrapolation by fixed multipoles:
  | Hartree multipole sum: apparent total charge =   0.999999E+00
  Summing up the Hartree potential.
  Time summed over all CPUs for potential: real work        0.256 s, elapsed        0.259 s
  | RMS charge density error from multipole expansion :   0.495332E-03

  Integrating Hamiltonian matrix: batch-based integration.
  Time summed over all CPUs for integration: real work        0.165 s, elapsed        0.166 s

  Updating Kohn-Sham eigenvalues, eigenvectors, occupation numbers, and Fermi level.
  Solving generalized eigenproblem
  Updating Kohn-Sham eigenvalues and eigenfunctions.
  Solving real generalised eigenvalue problem by standard LAPACK (fast)
  Determining occupation numbers for Kohn-Sham eigenstates.
  | Chemical potential (Fermi level) in eV                 : -.17441308E+02
  | Error in electron count due to remaining E_F inaccuracy: -.87041485E-13
  | Maximum occupation number of highest empty state:  0.00E+00

  Highest occupied state (VBM) at    -25.61029567 eV
  | Occupation number:      2.00000000

  Lowest unoccupied state (CBM) at   -17.43653826 eV
  | Occupation number:      0.50001024

  Overall HOMO-LUMO gap:      8.17375741 eV.

  Total energy components:
  | Sum of eigenvalues            :         -89.79637962 Ha       -2443.48381262 eV
  | XC energy correction          :         -16.45369160 Ha        -447.72772860 eV
  | XC potential correction       :          21.14564211 Ha         575.40219794 eV
  | Free-atom electrostatic energy:         -71.50995483 Ha       -1945.88487651 eV
  | Hartree energy correction     :           6.82130293 Ha         185.61709694 eV
  | Entropy correction            :          -0.00016515 Ha          -0.00449404 eV
  | ---------------------------
  | Total energy                  :        -149.79308101 Ha       -4076.07712284 eV
  | Total energy, T -> 0          :        -149.79324616 Ha       -4076.08161688 eV  <-- do not rely on this value for anything but (periodic) metals
  | Electronic free energy        :        -149.79341132 Ha       -4076.08611092 eV

  Derived energy quantities:
  | Kinetic energy                :         149.45658005 Ha        4066.92046576 eV
  | Electrostatic energy          :        -282.79596946 Ha       -7695.26985999 eV
  | Energy correction for multipole
  | error in Hartree potential    :          -0.00054343 Ha          -0.01478739 eV
  | Sum of eigenvalues per atom                           :       -1221.74190631 eV
  | Total energy (T->0) per atom                          :       -2038.04080844 eV  <-- do not rely on this value for anything but (periodic) metals
  | Electronic free energy per atom                       :       -2038.04305546 eV

  atomic forces [eV/Ang]:
  -----------------------
  atom #    1
   Hellmann-Feynman              : -0.363237E-09  0.347306E-01 -0.155921E+02
   Ionic forces                  :  0.000000E+00  0.000000E+00  0.000000E+00
   Multipole                     :  0.353548E-12  0.133110E-03 -0.593844E-01
   Pulay + GGA                   :  0.000000E+00  0.000000E+00  0.000000E+00
   ----------------------------------------------------------------
   Total forces(   1)            : -0.362883E-09  0.348637E-01 -0.156515E+02
  atom #    2
   Hellmann-Feynman              :  0.283131E-09 -0.347306E-01  0.155921E+02
   Ionic forces                  :  0.000000E+00  0.000000E+00  0.000000E+00
   Multipole                     : -0.761991E-12 -0.133110E-03  0.593844E-01
   Pulay + GGA                   :  0.000000E+00  0.000000E+00  0.000000E+00
   ----------------------------------------------------------------
   Total forces(   2)            :  0.282369E-09 -0.348637E-01  0.156515E+02


  Self-consistency convergence accuracy:
  | Change of charge density      :  0.1824E-04
  | Change of sum of eigenvalues  :  0.1995E-03 eV
  | Change of total energy        : -0.1601E-09 eV
  | Change of forces              :  0.1565E+02 eV/A

  End self-consistency iteration #    16       :  max(cpu_time)    wall_clock(cpu1)
  | Time for this iteration                    :        0.147 s           0.146 s
  | Charge density & force component update    :        0.030 s           0.029 s
  | Density mixing                             :        0.003 s           0.003 s
  | Hartree multipole update                   :        0.004 s           0.004 s
  | Hartree multipole summation                :        0.066 s           0.065 s
  | Integration                                :        0.042 s           0.042 s
  | Solution of K.-S. eqns.                    :        0.001 s           0.001 s
  | Total energy evaluation                    :        0.002 s           0.001 s
------------------------------------------------------------

------------------------------------------------------------
          Begin self-consistency iteration #   17

  Date     :  20190722, Time     :  144418.824
------------------------------------------------------------
  Evaluating new KS density and force components.
  Integration grid: deviation in total charge (<rho> - N_e) =  -2.664535E-14
  Pulay mixing of updated and previous charge densities.

  Evaluating partitioned Hartree potential by multipole expansion.
  | Analytical far-field extrapolation by fixed multipoles:
  | Hartree multipole sum: apparent total charge =   0.999999E+00
  Summing up the Hartree potential.
  Time summed over all CPUs for potential: real work        0.256 s, elapsed        0.259 s
  | RMS charge density error from multipole expansion :   0.495332E-03

  Integrating Hamiltonian matrix: batch-based integration.
  Time summed over all CPUs for integration: real work        0.167 s, elapsed        0.168 s

  Updating Kohn-Sham eigenvalues, eigenvectors, occupation numbers, and Fermi level.
  Solving generalized eigenproblem
  Updating Kohn-Sham eigenvalues and eigenfunctions.
  Solving real generalised eigenvalue problem by standard LAPACK (fast)
  Determining occupation numbers for Kohn-Sham eigenstates.
  | Chemical potential (Fermi level) in eV                 : -.17441308E+02
  | Error in electron count due to remaining E_F inaccuracy: -.28421709E-13
  | Maximum occupation number of highest empty state:  0.00E+00

  Highest occupied state (VBM) at    -25.61029567 eV
  | Occupation number:      2.00000000

  Lowest unoccupied state (CBM) at   -17.43653814 eV
  | Occupation number:      0.50000007

  Overall HOMO-LUMO gap:      8.17375752 eV.

  Total energy components:
  | Sum of eigenvalues            :         -89.79637962 Ha       -2443.48381243 eV
  | XC energy correction          :         -16.45369160 Ha        -447.72772870 eV
  | XC potential correction       :          21.14564211 Ha         575.40219808 eV
  | Free-atom electrostatic energy:         -71.50995483 Ha       -1945.88487651 eV
  | Hartree energy correction     :           6.82130293 Ha         185.61709672 eV
  | Entropy correction            :          -0.00016515 Ha          -0.00449404 eV
  | ---------------------------
  | Total energy                  :        -149.79308101 Ha       -4076.07712284 eV
  | Total energy, T -> 0          :        -149.79324616 Ha       -4076.08161688 eV  <-- do not rely on this value for anything but (periodic) metals
  | Electronic free energy        :        -149.79341132 Ha       -4076.08611092 eV

  Derived energy quantities:
  | Kinetic energy                :         149.45658007 Ha        4066.92046636 eV
  | Electrostatic energy          :        -282.79596948 Ha       -7695.26986049 eV
  | Energy correction for multipole
  | error in Hartree potential    :          -0.00054343 Ha          -0.01478739 eV
  | Sum of eigenvalues per atom                           :       -1221.74190622 eV
  | Total energy (T->0) per atom                          :       -2038.04080844 eV  <-- do not rely on this value for anything but (periodic) metals
  | Electronic free energy per atom                       :       -2038.04305546 eV

  atomic forces [eV/Ang]:
  -----------------------
  atom #    1
   Hellmann-Feynman              : -0.286552E-09  0.347306E-01 -0.155921E+02
   Ionic forces                  :  0.000000E+00  0.000000E+00  0.000000E+00
   Multipole                     :  0.228917E-13  0.133110E-03 -0.593844E-01
   Pulay + GGA                   :  0.120934E-09 -0.348634E-01  0.156517E+02
   ----------------------------------------------------------------
   Total forces(   1)            : -0.165595E-09  0.265356E-06  0.245013E-03
  atom #    2
   Hellmann-Feynman              :  0.211064E-09 -0.347306E-01  0.155921E+02
   Ionic forces                  :  0.000000E+00  0.000000E+00  0.000000E+00
   Multipole                     : -0.431709E-12 -0.133110E-03  0.593844E-01
   Pulay + GGA                   : -0.104566E-09  0.348634E-01 -0.156517E+02
   ----------------------------------------------------------------
   Total forces(   2)            :  0.106066E-09 -0.265372E-06 -0.245013E-03


  Self-consistency convergence accuracy:
  | Change of charge density      :  0.3526E-05
  | Change of sum of eigenvalues  :  0.1833E-06 eV
  | Change of total energy        : -0.7734E-12 eV
  | Change of forces              :  0.5309E-06 eV/A

  Writing Kohn-Sham eigenvalues.

  State    Occupation    Eigenvalue [Ha]    Eigenvalue [eV]
      1       2.00000         -19.412611         -528.24402
      2       2.00000         -19.412392         -528.23807
      3       2.00000          -1.743891          -47.45369
      4       2.00000          -1.151970          -31.34670
      5       2.00000          -0.957887          -26.06543
      6       2.00000          -0.957887          -26.06543
      7       2.00000          -0.941161          -25.61030
      8       0.50000          -0.640781          -17.43654
      9       0.50000          -0.640781          -17.43654
     10       0.00000          -0.181164           -4.92973
     11       0.00000          -0.160859           -4.37719
     12       0.00000          -0.115282           -3.13697
     13       0.00000          -0.115282           -3.13697
     14       0.00000          -0.061531           -1.67435

  Highest occupied state (VBM) at    -25.61029567 eV
  | Occupation number:      2.00000000

  Lowest unoccupied state (CBM) at   -17.43653814 eV
  | Occupation number:      0.50000007

  Overall HOMO-LUMO gap:      8.17375752 eV.

  Self-consistency cycle converged.

  End self-consistency iteration #    17       :  max(cpu_time)    wall_clock(cpu1)
  | Time for this iteration                    :        0.217 s           0.218 s
  | Charge density & force component update    :        0.100 s           0.100 s
  | Density mixing                             :        0.002 s           0.003 s
  | Hartree multipole update                   :        0.004 s           0.003 s
  | Hartree multipole summation                :        0.066 s           0.066 s
  | Integration                                :        0.042 s           0.042 s
  | Solution of K.-S. eqns.                    :        0.001 s           0.001 s
  | Total energy evaluation                    :        0.001 s           0.002 s
------------------------------------------------------------
  Writing cluster restart information to file restart
  ------------------------------------------------------------
   Computing monopole / dipole moments for complete molecule:
  | Total electronic charge [e]         :          0.150000000079983E+02
  | Total ionic charge [e]              :          0.160000000000000E+02
  | Total charge [e]                    :          0.999999992001694E+00
 * Warning: The system has a total charge of      0.99999999 .
 * The dipole moment depends on the choice of the origin.
  | Total dipole moment [eAng]          :          0.433211294863234E-13         0.124999999006457E-02         0.603749995171031E+00
  | Absolute dipole moment              :          0.603751289165493E+00 eAng              /                   0.289948907860566E+01 Debye  .
  Removing unitary transformations (pure translations, rotations) from forces on atoms.
  Atomic forces before filtering:
  | Net force on center of mass :  -0.595288E-10 -0.154899E-10 -0.176065E-10 eV/A
  | Net torque on center of mass:   0.910479E-06  0.152508E-09  0.339577E-12 eV
  Atomic forces after filtering:
  | Net force on center of mass :  -0.103846E-25  0.000000E+00  0.000000E+00 eV/A
  | Net torque on center of mass:   0.180070E-21  0.233193E-25  0.519230E-28 eV

  Energy and forces in a compact form:
  | Total energy uncorrected      :         -0.407607712284123E+04 eV
  | Total energy corrected        :         -0.407608161688052E+04 eV  <-- do not rely on this value for anything but (periodic) metals
  | Electronic free energy        :         -0.407608611091981E+04 eV
  Total atomic forces (unitary forces cleaned) [eV/Ang]:
  |   1         -0.259615079450449E-25         -0.545545306546019E-06          0.245011292862492E-03
  |   2          0.155769047670269E-25          0.545545306546019E-06         -0.245011292862492E-03

  ------------------------------------ 
  Start decomposition of the XC Energy 
  ------------------------------------ 
  Hartree-Fock part   :          0.000000000 Ha              0.000000000 eV
  ------------------------------------ 
  X Energy            :        -15.950250840 Ha           -434.028408487 eV
  C Energy GGA        :         -0.503440764 Ha            -13.699320215 eV
  Total XC Energy     :        -16.453691605 Ha           -447.727728702 eV
  LDA X and C from self-consistent density 
  X Energy LDA        :        -14.465847491 Ha           -393.635738204 eV
  C Energy LDA        :         -1.061660390 Ha            -28.889249076 eV
  ------------------------------------ 
  End decomposition of the XC Energy 
  ------------------------------------ 

------------------------------------------------------------------------------
  Final output of selected total energy values:

  The following output summarizes some interesting total energy values
  at the end of a run (AFTER all relaxation, molecular dynamics, etc.).

  | Total energy of the DFT / Hartree-Fock s.c.f. calculation      :          -4076.077122841 eV
  | Final zero-broadening corrected energy (caution - metals only) :          -4076.081616881 eV
  | For reference only, the value of 1 Hartree used in FHI-aims is :             27.211384500 eV

  Before relying on these values, please be sure to understand exactly which
  total energy value is referred to by a given number. Different objects may
  all carry the same name 'total energy'. Definitions:

  Total energy of the DFT / Hartree-Fock s.c.f. calculation:
  | Note that this energy does not include ANY quantities calculated after the
  | s.c.f. cycle, in particular not ANY RPA, MP2, etc. many-body perturbation terms.

  Final zero-broadening corrected energy:
  | For metallic systems only, a broadening of the occupation numbers at the Fermi
  | level can be extrapolated back to zero broadening by an electron-gas inspired
  | formula. For all systems that are not real metals, this value can be
  | meaningless and should be avoided.

------------------------------------------------------------------------------
  Methods described in the following list of references were used in this FHI-aims run.
  If you publish the results, please make sure to cite these reference if they apply.
  FHI-aims is an academic code, and for our developers (often, Ph.D. students
  and postdocs), scientific credit in the community is essential.
  Thank you for helping us!

  For any use of FHI-aims, please cite:

    Volker Blum, Ralf Gehrke, Felix Hanke, Paula Havu, Ville Havu,
    Xinguo Ren, Karsten Reuter, and Matthias Scheffler
    'Ab initio molecular simulations with numeric atom-centered orbitals'
    Computer Physics Communications 180, 2175-2196 (2009)
    http://dx.doi.org/10.1016/j.cpc.2009.06.022


  For the real-space grid partitioning and parallelization used in this calculation, please cite:

    Ville Havu, Volker Blum, Paula Havu, and Matthias Scheffler,
    'Efficient O(N) integration for all-electron electronic structure calculation'
    'using numerically tabulated basis functions'
    Journal of Computational Physics 228, 8367-8379 (2009).
    http://dx.doi.org/10.1016/j.jcp.2009.08.008

  Of course, there are many other important community references, e.g., those cited in the
  above references. Our list is limited to references that describe implementations in the
  FHI-aims code. The reason is purely practical (length of this list) - please credit others as well.

------------------------------------------------------------
          Leaving FHI-aims.
          Date     :  20190722, Time     :  144419.086

          Computational steps:
          | Number of self-consistency cycles          :           17

          Detailed time accounting                     :  max(cpu_time)    wall_clock(cpu1)
          | Total time                                 :        2.415 s           2.432 s
          | Preparation time                           :        0.144 s           0.157 s
          | Grid partitioning                          :        0.023 s           0.023 s
          | Preloading free-atom quantities on grid    :        0.017 s           0.017 s
          | Free-atom superposition energy             :        0.008 s           0.009 s
          | Total time for integrations                :        0.816 s           0.811 s
          | Total time for solution of K.-S. equations :        0.032 s           0.038 s
          | Total time for density & force components  :        0.612 s           0.603 s
          | Total time for mixing                      :        0.046 s           0.048 s
          | Total time for Hartree multipole update    :        0.075 s           0.069 s
          | Total time for Hartree multipole sum       :        0.539 s           0.532 s
          | Total time for total energy evaluation     :        0.010 s           0.022 s

          Have a nice day.
------------------------------------------------------------
