  MPI-parallelism will be employed.
------------------------------------------------------------
          Invoking FHI-aims ...
          Version 160328_3
          Compiled on 2019/06/10 at 14:55:49 on host taito-login3.csc.fi.

          When using FHI-aims, please cite the following reference:

          Volker Blum, Ralf Gehrke, Felix Hanke, Paula Havu,
          Ville Havu, Xinguo Ren, Karsten Reuter, and Matthias Scheffler,
          'Ab Initio Molecular Simulations with Numeric Atom-Centered Orbitals',
          Computer Physics Communications 180, 2175-2196 (2009)

          For any questions about FHI-aims, please visit the aimsclub website
          with its forums and wiki. Contributions to both the forums and the
          wiki are warmly encouraged - they are for you, and everyone is welcome there.

------------------------------------------------------------

  Date     :  20190722, Time     :  143619.130
  Time zero on CPU 1             :   0.709890000000000E-01  s.
  Internal wall clock time zero  :           333038179.130  s.

  Using        8 parallel tasks.
  Task        0 on host c674 reporting.
  Task        1 on host c674 reporting.
  Task        2 on host c674 reporting.
  Task        3 on host c674 reporting.
  Task        4 on host c674 reporting.
  Task        5 on host c674 reporting.
  Task        6 on host c674 reporting.
  Task        7 on host c674 reporting.

  Performing system and environment tests:
  | Environment variable OMP_NUM_THREADS correctly set to 1.
  | Maximum stacksize for task 0: unlimited
  | Maximum stacksize for task 1: unlimited
  | Maximum stacksize for task 2: unlimited
  | Maximum stacksize for task 3: unlimited
  | Maximum stacksize for task 4: unlimited
  | Maximum stacksize for task 5: unlimited
  | Maximum stacksize for task 6: unlimited
  | Maximum stacksize for task 7: unlimited
  | Current stacksize for task 0: 1024 [Mb]
  | Current stacksize for task 1: 1024 [Mb]
  | Current stacksize for task 2: 1024 [Mb]
  | Current stacksize for task 3: 1024 [Mb]
  | Current stacksize for task 4: 1024 [Mb]
  | Current stacksize for task 5: 1024 [Mb]
  | Current stacksize for task 6: 1024 [Mb]
  | Current stacksize for task 7: 1024 [Mb]
  | Checking for scalapack...
  | No scalapack compiled in.

  Obtaining array dimensions for all initial allocations:
  
  -----------------------------------------------------------------------
  Parsing control.in (first pass over file, find array dimensions only).
  The contents of control.in will be repeated verbatim below
  unless switched off by setting 'verbatim_writeout .false.' .
  in the first line of control.in .
  -----------------------------------------------------------------------
  
    #  Physical model settings
    #
  
    xc                            pbe
    charge                        0.0
    relativistic                  none
  #  default_initial_moment        0.0
    spin                          none
  #  vdw_correction_hirshfeld
  
    #  SCF convergence settings
    #
  
    sc_accuracy_rho               1E-4
    sc_accuracy_eev               1E-2
    sc_accuracy_etot              1E-8
    sc_iter_limit                 100
  
    #  Occupation settings
    #
  
    restart                       restart
  #  force_occupation_projector      21 1 1.0 20 21 # ion 0
  #  force_occupation_projector      20 1 1.0 20 21 # ion 1
  #  force_occupation_projector      19 1 1.0 18 19 # ion 2
  #  force_occupation_projector      18 1 1.0 18 19 # ion 3
  #  force_occupation_projector      17 1 1.0 17 17 # ion 4
  
    #  Relaxation
    #
  
    ##########relax_geometry                bfgs    1.e-4
  
  
  ################################################################################
  #
  #  FHI-aims code project
  #  VB, Fritz-Haber Institut, 2007
  #
  #  Suggested "safe" defaults for O atom (to be pasted into control.in file)
  #
  ################################################################################
    species        O
  #     global species definitions
      nucleus             8
      mass                15.9994
  #
      l_hartree           8
  #
      cut_pot             4.0  2.0  1.0
      basis_dep_cutoff    0.d0
  #
      radial_base         36 7.0
      radial_multiplier   2
       angular_grids specified
        division   0.4087  110
        division   0.5181  194
        division   0.6184  302
        division   0.7315  434
        division   0.7934  590
  #      division   0.9656  770
  #      division   1.4041  974
  #      outer_grid 974
        outer_grid 590
  ################################################################################
  #
  #  Definition of "minimal" basis
  #
  ################################################################################
  #     valence basis states
      valence      2  s   2.
      valence      2  p   4.
  #     ion occupancy
      ion_occ      2  s   1.
      ion_occ      2  p   3.
  ################################################################################
  #
  #  Suggested additional basis functions. For production calculations,
  #  uncomment them one after another (the most important basis functions are
  #  listed first).
  #
  #  Constructed for dimers: 1.0 A, 1.208 A, 1.5 A, 2.0 A, 3.0 A
  #
  ################################################################################
  #  "First tier" - improvements: -699.05 meV to -159.38 meV
       hydro 2 p 1.8
       hydro 3 d 7.6
       hydro 3 s 6.4
  #  "Second tier" - improvements: -49.91 meV to -5.39 meV
       hydro 4 f 11.6
       hydro 3 p 6.2
       hydro 3 d 5.6
       hydro 5 g 17.6
       hydro 1 s 0.75
  #  "Third tier" - improvements: -2.83 meV to -0.50 meV
  #     ionic 2 p auto
  #     hydro 4 f 10.8
  #     hydro 4 d 4.7
  #     hydro 2 s 6.8
  #  "Fourth tier" - improvements: -0.40 meV to -0.12 meV
  #     hydro 3 p 5
  #     hydro 3 s 3.3
  #     hydro 5 g 15.6
  #     hydro 4 f 17.6
  #     hydro 4 d 14
  # Further basis functions - -0.08 meV and below
  #     hydro 3 s 2.1
  #     hydro 4 d 11.6
  #     hydro 3 p 16
  #     hydro 2 s 17.2
  compute_forces .true.
  final_forces_cleaned .true.
  output dipole
  
  -----------------------------------------------------------------------
  Completed first pass over input file control.in .
  -----------------------------------------------------------------------
  
  
  -----------------------------------------------------------------------
  Parsing geometry.in (first pass over file, find array dimensions only).
  The contents of geometry.in will be repeated verbatim below
  unless switched off by setting 'verbatim_writeout .false.' .
  in the first line of geometry.in .
  -----------------------------------------------------------------------
  
  #
  # temporary structure-file for finite-difference calculation of forces
  # displacement   0.0025 of \# atom     1 direction     1
  #
  atom   -0.00000000   -0.00000000    0.04235921   O
  atom    0.00000000    0.00250000    1.16514079   O
  
  -----------------------------------------------------------------------
  Completed first pass over input file geometry.in .
  -----------------------------------------------------------------------
  

  Basic array size parameters:
  | Number of species                 :        1
  | Number of atoms                   :        2
  | Max. basis fn. angular momentum   :        4
  | Max. atomic/ionic basis occupied n:        2
  | Max. number of basis fn. types    :        2
  | Max. radial fns per species/type  :        8
  | Max. logarithmic grid size        :     1301
  | Max. radial integration grid size :       73
  | Max. angular integration grid size:      590
  | Max. angular grid division number :        8
  | Radial grid for Hartree potential :     1301
  | Number of spin channels           :        1

------------------------------------------------------------
          Reading file control.in.
------------------------------------------------------------
  XC: Using PBE gradient-corrected functionals.
  Charge =   0.000000E+00: Neutral system requested explicitly.
  Non-relativistic treatment of kinetic energy.
  Spin treatment: No spin polarisation.
  Convergence accuracy of self-consistent charge density:  0.1000E-03
  Convergence accuracy of sum of eigenvalues:  0.1000E-01
  Convergence accuracy of total energy:  0.1000E-07
  Maximum number of s.-c. iterations  :   100
  Restart file specified as : restart
  | This file does not exist, will create it after the first complete scf cycle.
 
  Reading configuration options for species O                   .
  | Found nuclear charge :   8.0000
  | Found atomic mass :    15.9994000000000      amu
  | Found l_max for Hartree potential  :   8
  | Found cutoff potl. onset [A], width [A], scale factor :    4.00000    2.00000    1.00000
  | Threshold for basis-dependent cutoff potential is   0.000000E+00
  | Found data for basic radial integration grid :    36 points, outermost radius =    7.000 A
  | Found multiplier for basic radial grid :   2
  | Found angular grid specification: user-specified.
  | Specified grid contains     6 separate shells.
  | Check grid settings after all constraints further below.
  | Found free-atom valence shell :  2 s   2.000
  | Found free-atom valence shell :  2 p   4.000
  | No ionic wave fns used. Skipping ion_occ.
  | No ionic wave fns used. Skipping ion_occ.
  | Found hydrogenic basis function :  2 p   1.800
  | Found hydrogenic basis function :  3 d   7.600
  | Found hydrogenic basis function :  3 s   6.400
  | Found hydrogenic basis function :  4 f  11.600
  | Found hydrogenic basis function :  3 p   6.200
  | Found hydrogenic basis function :  3 d   5.600
  | Found hydrogenic basis function :  5 g  17.600
  | Found hydrogenic basis function :  1 s   0.750
  Species O                   : Missing cutoff potential type.
  Defaulting to exp(1/x)/(1-x)^2 type cutoff potential.
  Species O : No 'logarithmic' tag. Using default grid for free atom:
  | Default logarithmic grid data [bohr] : 0.1000E-03 0.1000E+03 0.1012E+01
  Species O : On-site basis accuracy parameter (for Gram-Schmidt orthonormalisation) not specified.
  Using default value basis_acc =  0.1000000E-03.
  Species O                   : Using default innermost maximum threshold i_radial=  2 for radial functions.
  Species O                   : Default cutoff onset for free atom density etc. : 0.40000000E+01 AA.
  Species O                   : Basic radial grid will be enhanced according to radial_multiplier =   2, to contain    73 grid points.
  Forces will be computed.
  Cleaning forces before final output.
  Dipole moment will be written out.
 
  Finished reading input file 'control.in'. Consistency checks are next.
 
  Target number of points in a grid batch is not set. Defaulting to  100
  Method for grid partitioning is not set. Defaulting to parallel hash+maxmin partitioning.
  Batch size limit is not set. Defaulting to    200
  By default, will store active basis functions for each batch.
  If in need of memory, prune_basis_once .false. can be used to disable this option.
  communication_type for Hartree potential was not specified.
  Defaulting to calc_hartree .
  Defaulting to Pulay charge density mixer.
  Pulay mixer: Number of relevant iterations not set.
  Defaulting to    8 iterations.
  Pulay mixer: Number of initial linear mixing iterations not set.
  Defaulting to    0 iterations.
  Work space size for distributed Hartree potential not set.
  Defaulting to   0.200000E+03 MB.
  Mixing parameter for charge density mixing has not been set.
  Using default: charge_mix_param =     0.2000.
  Algorithm-dependent basis array size parameters:
  | n_max_pulay                         :        8
  Geometry relaxation not requested: no relaxation will be performed.
  Force calculation: scf convergence accuracy of forces not set.
  Defaulting to  0.1000E-03 eV/A.
  Handling of forces: Unphysical translation and rotation will be removed from forces.
  No accuracy limit for integral partition fn. given. Defaulting to  0.1000E-14.
  No threshold value for u(r) in integrations given. Defaulting to  0.1000E-05.
  No occupation type (smearing scheme) given. Defaulting to Gaussian broadening, width =  0.1000E-01 eV.
  No accuracy for occupation numbers given. Defaulting to  0.1000E-07.
  No threshold value for occupation numbers given. Defaulting to  0.0000E+00.
  No accuracy for fermi level given. Defaulting to  0.1000E-19.
  Maximum # of iterations to find E_F not set. Defaulting to  200.
  Preferred method for the eigenvalue solver ('KS_method') not specified in 'control.in'.
  Calling blacs routine to test compilation state
  The best choice would be 'elpa', but your version of FHI-aims is compiled without scalapack support.
  Defaulting to 'lapack_fast' instead (serial solution, time will not improve with more CPUs).
  Will not use alltoall communication since running on < 1024 CPUs.
  Threshold for basis singularities not set.
  Default threshold for basis singularities:  0.1000E-04
  partition_type (choice of integration weights) for integrals was not specified.
  | Using a version of the partition function of Stratmann and coworkers ('stratmann_smoother').
  | At each grid point, the set of atoms used to build the partition table is smoothly restricted to
  | only those atoms whose free-atom density would be non-zero at that grid point.
  Partitioning for Hartree potential was not defined. Using partition_type for integrals.
  | Adjusted default value of keyword multip_moments_threshold to:       0.10000000E-11
  | This value may affect high angular momentum components of the Hartree potential in periodic systems.
  No q(lm)/r^(l+1) cutoff set for long-range Hartree potential.
  | Using default value of  0.100000E-09 .
  | Verify using the multipole_threshold keyword.
  Defaulting to new monopole extrapolation.
  Density update method: automatic selection selected.
------------------------------------------------------------


------------------------------------------------------------
          Reading geometry description geometry.in.
------------------------------------------------------------
  Input structure read successfully.
  The structure contains        2 atoms,  and a total of         16.000 electrons.

  Input geometry:
  | No unit cell requested.
  | Atomic structure:
  |       Atom                x [A]            y [A]            z [A]
  |    1: Species O              0.000000         0.000000         0.042359
  |    2: Species O              0.000000         0.002500         1.165141
  |

  | The smallest distance between any two atoms is         1.12278436 AA.
  |
  | The first atom of this pair is atom number                      1 .
  | The second atom of this pair is atom number                     2 .

  Number of empty states per atom not set in control.in - providing a guess from actual geometry.
  | Total number of empty states used during s.c.f. cycle:        6
  If you use a very high smearing, use empty_states (per atom!) in control.in to increase this value.

  Structure-dependent array size parameters: 
  | Maximum number of distinct radial functions  :       11
  | Maximum number of basis functions            :       78
  | Number of Kohn-Sham states (occupied + empty):       14
------------------------------------------------------------

------------------------------------------------------------
          Preparing all fixed parts of the calculation.
------------------------------------------------------------
  Determining machine precision:
    2.225073858507201E-308
  Setting up grids for atomic and cluster calculations.

  Creating wave function, potential, and density for free atoms.

  Species: O

  List of occupied orbitals and eigenvalues:
    n    l              occ      energy [Ha]    energy [eV]
    1    0           2.0000       -18.898576      -514.2564
    2    0           2.0000        -0.878795       -23.9132
    2    1           4.0000        -0.332075        -9.0362

  Creating fixed part of basis set: Ionic, confined, hydrogenic.
 
  O                    hydrogenic:
 
  List of hydrogenic basis orbitals: 
    n    l      effective z      eigenvalue [eV]  inner max. [A]     outer max. [A]     outer radius [A]   
    2    1         1.800000       -11.0118           1.178562           1.178562           5.432602
    3    2         7.600000       -87.3183           0.624125           0.624125           4.634338
    3    0         6.400000       -61.9210           0.061167           1.081902           5.110480
    4    3        11.600000      -114.4239           0.731631           0.731631           4.522403
    3    1         6.200000       -58.1114           0.255680           1.030270           5.110480
    3    2         5.600000       -47.4083           0.847233           0.847233           5.173339
    5    4        17.600000      -168.5800           0.749740           0.749740           4.051222
    1    0         0.750000        -7.6499           0.705284           0.705284           5.366593
 

  Adding cutoff potential to free-atom effective potential.
  Creating atomic-like basis functions for current effective potential.

  Species O                   :

  List of atomic basis orbitals and eigenvalues:
    n    l      energy [Ha]    energy [eV]    outer radius [A]
    1    0       -18.898576      -514.2564       1.415765
    2    0        -0.878795       -23.9132       5.048385
    2    1        -0.332075        -9.0362       5.301386

  Assembling full basis from fixed parts.
  | Species O :   atomic orbital   1 s accepted.
  | Species O :   atomic orbital   2 s accepted.
  | Species O :    hydro orbital   3 s accepted.
  | Species O :    hydro orbital   1 s accepted.
  | Species O :   atomic orbital   2 p accepted.
  | Species O :    hydro orbital   2 p accepted.
  | Species O :    hydro orbital   3 p accepted.
  | Species O :    hydro orbital   3 d accepted.
  | Species O :    hydro orbital   3 d accepted.
  | Species O :    hydro orbital   4 f accepted.
  | Species O :    hydro orbital   5 g accepted.
 
  Basis size parameters after reduction:
  | Total number of radial functions:       11
  | Total number of basis functions :       78
 
  Testing on-site integration grid accuracy.
  |  Species  Function  <phi|h_atom|phi> (log., in eV)  <phi|h_atom|phi> (rad., in eV)
           1        1               -514.2564144315               -514.2564099626
           1        2                -23.9132357102                -23.9132356433
           1        3                 17.5398579759                 17.5398338425
           1        4                 14.5207278950                 14.5207740449
           1        5                 -9.0362392718                 -9.0362394845
           1        6                  7.9056275927                  7.9056237490
           1        7                 33.4201658992                 33.4201612015
           1        8                 45.8231952720                 45.8231953152
           1        9                 52.1937595491                 52.1937593440
           1       10                 85.4062894308                 85.4062894578
           1       11                142.0975701139                142.0975701391

  Preparing densities etc. for the partition functions (integrals / Hartree potential).

  Preparations completed.
  max(cpu_time)          :      0.147 s.
  Wall clock time (cpu1) :      0.159 s.
------------------------------------------------------------

------------------------------------------------------------
          Begin self-consistency loop: Initialization.

          Date     :  20190722, Time     :  143619.305
------------------------------------------------------------

  Initializing index lists of integration centers etc. from given atomic structure:
  | Number of centers in hartree potential         :         2
  | Number of centers in hartree multipole         :         2
  | Number of centers in electron density summation:         2
  | Number of centers in basis integrals           :         2
  | Number of centers in integrals                 :         2
  | Number of centers in hamiltonian               :         2
  Partitioning the integration grid into batches with parallel hashing+maxmin method.
  | Number of batches:      806
  | Maximal batch size:     116
  | Minimal batch size:      49
  | Average batch size:      66.079
  | Standard deviation of batch sizes:      20.001

  Integration load balanced across     8 MPI tasks.
  Work distribution over tasks is as follows:
  Task     0 has       6720 integration points.
  Task     1 has       6630 integration points.
  Task     2 has       6639 integration points.
  Task     3 has       6631 integration points.
  Task     4 has       6702 integration points.
  Task     5 has       6626 integration points.
  Task     6 has       6633 integration points.
  Task     7 has       6679 integration points.
  Initializing partition tables, free-atom densities, potentials, etc. across the integration grid (initialize_grid_storage).
  | initialize_grid_storage: Actual outermost partition radius vs. multipole_radius_free
  | (-- VB: in principle, multipole_radius_free should be larger, hence this output)
  | Species        1: Confinement radius =              6.000000000000000 AA, multipole_radius_free =              6.064445521808699 AA.
  | Species        1: outer_partition_radius set to              6.064445521808699 AA .
  | Original list of interatomic distances with           2 x          2 entries is created.
  | Net number of integration points:    53260
  | of which are non-zero points    :    49990
  Obtaining max. number of non-zero basis functions in each batch (get_n_compute_maxes).
  | Maximal number of non-zero basis functions:       78 in task     0
  | Maximal number of non-zero basis functions:       78 in task     1
  | Maximal number of non-zero basis functions:       78 in task     2
  | Maximal number of non-zero basis functions:       78 in task     3
  | Maximal number of non-zero basis functions:       78 in task     4
  | Maximal number of non-zero basis functions:       78 in task     5
  | Maximal number of non-zero basis functions:       78 in task     6
  | Maximal number of non-zero basis functions:       78 in task     7
  Selecting the method for density update.
  Loop over occupied states selected for charge density update.
  Integrating Hamiltonian matrix: batch-based integration.
  Time summed over all CPUs for integration: real work        0.174 s, elapsed        0.178 s
  Integrating overlap matrix.
  Time summed over all CPUs for integration: real work        0.062 s, elapsed        0.063 s

  Updating Kohn-Sham eigenvalues, eigenvectors, occupation numbers, and Fermi level.
  Solving generalized eigenproblem
  Updating Kohn-Sham eigenvalues and eigenfunctions.
  Transforming overlap matrix and checking for singularities.
  Overlap matrix is nonsingular:
  | Lowest eigenvalue:  0.185756E-03
  Solving real generalised eigenvalue problem by standard LAPACK (fast)
  Determining occupation numbers for Kohn-Sham eigenstates.
  | Chemical potential (Fermi level) in eV                 : -.60447007E+01
  | Error in electron count due to remaining E_F inaccuracy: -.42632564E-12
  | Maximum occupation number of highest empty state:  0.00E+00

  Writing Kohn-Sham eigenvalues.

  State    Occupation    Eigenvalue [Ha]    Eigenvalue [eV]
      1       2.00000         -18.953128         -515.74085
      2       2.00000         -18.952911         -515.73495
      3       2.00000          -1.278978          -34.80277
      4       2.00000          -0.749291          -20.38924
      5       2.00000          -0.543119          -14.77903
      6       2.00000          -0.527515          -14.35443
      7       2.00000          -0.527515          -14.35443
      8       1.00000          -0.222139           -6.04470
      9       1.00000          -0.222139           -6.04470
     10       0.00000           0.089762            2.44256
     11       0.00000           0.095446            2.59722
     12       0.00000           0.127473            3.46872
     13       0.00000           0.127473            3.46872
     14       0.00000           0.202055            5.49820

  Highest occupied state (VBM) at     -6.04470073 eV
  | Occupation number:      1.00000001

  Lowest unoccupied state (CBM) at    -6.04470073 eV
  | Occupation number:      0.99999999

  Overall HOMO-LUMO gap:      0.00000000 eV.
  Calculating total energy contributions from superposition of free atom densities.

  Total energy components:
  | Sum of eigenvalues            :         -83.50919421 Ha       -2272.40079295 eV
  | XC energy correction          :         -16.82076999 Ha        -457.71643990 eV
  | XC potential correction       :          21.62723248 Ha         588.50693867 eV
  | Free-atom electrostatic energy:         -71.50995472 Ha       -1945.88487358 eV
  | Hartree energy correction     :           0.00000000 Ha           0.00000000 eV
  | Entropy correction            :          -0.00020734 Ha          -0.00564190 eV
  | ---------------------------
  | Total energy                  :        -150.21268645 Ha       -4087.49516776 eV
  | Total energy, T -> 0          :        -150.21289379 Ha       -4087.50080966 eV  <-- do not rely on this value for anything but (periodic) metals
  | Electronic free energy        :        -150.21310112 Ha       -4087.50645155 eV

  Derived energy quantities:
  | Kinetic energy                :         149.92148581 Ha        4079.57119530 eV
  | Electrostatic energy          :        -283.31340227 Ha       -7709.34992316 eV
  | Energy correction for multipole
  | error in Hartree potential    :           0.00000000 Ha           0.00000000 eV
  | Sum of eigenvalues per atom                           :       -1136.20039647 eV
  | Total energy (T->0) per atom                          :       -2043.75040483 eV  <-- do not rely on this value for anything but (periodic) metals
  | Electronic free energy per atom                       :       -2043.75322578 eV
  Initialize hartree_potential_storage
  Max. number of atoms included in rho_multipole:            2

  End scf initialization - timings             :  max(cpu_time)    wall_clock(cpu1)
  | Time for scf. initialization               :        0.090 s           0.089 s
  | Boundary condition initialization          :        0.001 s           0.001 s
  | Integration                                :        0.032 s           0.031 s
  | Solution of K.-S. eqns.                    :        0.008 s           0.009 s
  | Grid partitioning                          :        0.016 s           0.016 s
  | Preloading free-atom quantities on grid    :        0.018 s           0.017 s
  | Free-atom superposition energy             :        0.004 s           0.005 s
  | Total energy evaluation                    :        0.002 s           0.001 s
------------------------------------------------------------

------------------------------------------------------------
          Begin self-consistency iteration #    1

  Date     :  20190722, Time     :  143619.395
------------------------------------------------------------
  Evaluating new KS density.
  Integration grid: deviation in total charge (<rho> - N_e) =  -1.971756E-13
  Pulay mixing of updated and previous charge densities.

  Evaluating partitioned Hartree potential by multipole expansion.
  | Analytical far-field extrapolation by fixed multipoles:
  | Hartree multipole sum: apparent total charge =  -0.399734E-07
  Summing up the Hartree potential.
  Time summed over all CPUs for potential: real work        0.109 s, elapsed        0.111 s
  | RMS charge density error from multipole expansion :   0.119909E-03

  Integrating Hamiltonian matrix: batch-based integration.
  Time summed over all CPUs for integration: real work        0.166 s, elapsed        0.169 s

  Updating Kohn-Sham eigenvalues, eigenvectors, occupation numbers, and Fermi level.
  Solving generalized eigenproblem
  Updating Kohn-Sham eigenvalues and eigenfunctions.
  Solving real generalised eigenvalue problem by standard LAPACK (fast)
  Determining occupation numbers for Kohn-Sham eigenstates.
  | Chemical potential (Fermi level) in eV                 : -.56795462E+01
  | Error in electron count due to remaining E_F inaccuracy: 0.59657168E-10
  | Maximum occupation number of highest empty state:  0.00E+00

  Writing Kohn-Sham eigenvalues.

  State    Occupation    Eigenvalue [Ha]    Eigenvalue [eV]
      1       2.00000         -18.925614         -514.99216
      2       2.00000         -18.925396         -514.98624
      3       2.00000          -1.271974          -34.61217
      4       2.00000          -0.732328          -19.92766
      5       2.00000          -0.525896          -14.31035
      6       2.00000          -0.517239          -14.07479
      7       2.00000          -0.517239          -14.07479
      8       1.00000          -0.208719           -5.67955
      9       1.00000          -0.208719           -5.67955
     10       0.00000           0.092722            2.52309
     11       0.00000           0.098824            2.68914
     12       0.00000           0.129430            3.52197
     13       0.00000           0.129430            3.52197
     14       0.00000           0.204461            5.56366

  Highest occupied state (VBM) at     -5.67954623 eV
  | Occupation number:      1.00000007

  Lowest unoccupied state (CBM) at    -5.67954623 eV
  | Occupation number:      0.99999993

  Overall HOMO-LUMO gap:      0.00000000 eV.

  Total energy components:
  | Sum of eigenvalues            :         -83.24881083 Ha       -2265.31540079 eV
  | XC energy correction          :         -16.85683382 Ha        -458.69778648 eV
  | XC potential correction       :          21.67423553 Ha         589.78595665 eV
  | Free-atom electrostatic energy:         -71.50995472 Ha       -1945.88487358 eV
  | Hartree energy correction     :          -0.26491258 Ha          -7.20863808 eV
  | Entropy correction            :          -0.00020734 Ha          -0.00564190 eV
  | ---------------------------
  | Total energy                  :        -150.20627643 Ha       -4087.32074228 eV
  | Total energy, T -> 0          :        -150.20648377 Ha       -4087.32638418 eV  <-- do not rely on this value for anything but (periodic) metals
  | Electronic free energy        :        -150.20669110 Ha       -4087.33202607 eV

  Derived energy quantities:
  | Kinetic energy                :         150.12566024 Ha        4085.12706409 eV
  | Electrostatic energy          :        -283.47510285 Ha       -7713.75001989 eV
  | Energy correction for multipole
  | error in Hartree potential    :          -0.00015192 Ha          -0.00413402 eV
  | Sum of eigenvalues per atom                           :       -1132.65770039 eV
  | Total energy (T->0) per atom                          :       -2043.66319209 eV  <-- do not rely on this value for anything but (periodic) metals
  | Electronic free energy per atom                       :       -2043.66601304 eV

  Self-consistency convergence accuracy:
  | Change of charge density      :  0.1777E+00
  | Change of sum of eigenvalues  :  0.7085E+01 eV
  | Change of total energy        :  0.1744E+00 eV

  End self-consistency iteration #     1       :  max(cpu_time)    wall_clock(cpu1)
  | Time for this iteration                    :        0.061 s           0.060 s
  | Charge density update                      :        0.017 s           0.016 s
  | Density mixing                             :        0.001 s           0.001 s
  | Hartree multipole update                   :        0.004 s           0.003 s
  | Hartree multipole summation                :        0.015 s           0.015 s
  | Integration                                :        0.022 s           0.022 s
  | Solution of K.-S. eqns.                    :        0.001 s           0.001 s
  | Total energy evaluation                    :        0.000 s           0.000 s
------------------------------------------------------------

------------------------------------------------------------
          Begin self-consistency iteration #    2

  Date     :  20190722, Time     :  143619.458
------------------------------------------------------------
  Evaluating new KS density.
  Integration grid: deviation in total charge (<rho> - N_e) =   5.989165E-11
  Pulay mixing of updated and previous charge densities.

  Evaluating partitioned Hartree potential by multipole expansion.
  | Analytical far-field extrapolation by fixed multipoles:
  | Hartree multipole sum: apparent total charge =  -0.975919E-07
  Summing up the Hartree potential.
  Time summed over all CPUs for potential: real work        0.107 s, elapsed        0.109 s
  | RMS charge density error from multipole expansion :   0.437638E-03

  Integrating Hamiltonian matrix: batch-based integration.
  Time summed over all CPUs for integration: real work        0.167 s, elapsed        0.171 s

  Updating Kohn-Sham eigenvalues, eigenvectors, occupation numbers, and Fermi level.
  Solving generalized eigenproblem
  Updating Kohn-Sham eigenvalues and eigenfunctions.
  Solving real generalised eigenvalue problem by standard LAPACK (fast)
  Determining occupation numbers for Kohn-Sham eigenstates.
  | Chemical potential (Fermi level) in eV                 : -.49566677E+01
  | Error in electron count due to remaining E_F inaccuracy: -.87787555E-11
  | Maximum occupation number of highest empty state:  0.00E+00

  Highest occupied state (VBM) at     -4.95666775 eV
  | Occupation number:      1.00000264

  Lowest unoccupied state (CBM) at    -4.95666770 eV
  | Occupation number:      0.99999736

  Overall HOMO-LUMO gap:      0.00000005 eV.

  Total energy components:
  | Sum of eigenvalues            :         -82.74496968 Ha       -2251.60518541 eV
  | XC energy correction          :         -16.93103768 Ha        -460.71697634 eV
  | XC potential correction       :          21.77085415 Ha         592.41508322 eV
  | Free-atom electrostatic energy:         -71.50995472 Ha       -1945.88487358 eV
  | Hartree energy correction     :          -0.78612852 Ha         -21.39164551 eV
  | Entropy correction            :          -0.00020734 Ha          -0.00564190 eV
  | ---------------------------
  | Total energy                  :        -150.20123646 Ha       -4087.18359762 eV
  | Total energy, T -> 0          :        -150.20144379 Ha       -4087.18923952 eV  <-- do not rely on this value for anything but (periodic) metals
  | Electronic free energy        :        -150.20165113 Ha       -4087.19488141 eV

  Derived energy quantities:
  | Kinetic energy                :         150.45770686 Ha        4094.16251231 eV
  | Electrostatic energy          :        -283.72790563 Ha       -7720.62913359 eV
  | Energy correction for multipole
  | error in Hartree potential    :          -0.00050296 Ha          -0.01368620 eV
  | Sum of eigenvalues per atom                           :       -1125.80259270 eV
  | Total energy (T->0) per atom                          :       -2043.59461976 eV  <-- do not rely on this value for anything but (periodic) metals
  | Electronic free energy per atom                       :       -2043.59744071 eV

  Self-consistency convergence accuracy:
  | Change of charge density      :  0.1270E+00
  | Change of sum of eigenvalues  :  0.1371E+02 eV
  | Change of total energy        :  0.1371E+00 eV

  End self-consistency iteration #     2       :  max(cpu_time)    wall_clock(cpu1)
  | Time for this iteration                    :        0.061 s           0.060 s
  | Charge density update                      :        0.016 s           0.014 s
  | Density mixing                             :        0.002 s           0.002 s
  | Hartree multipole update                   :        0.004 s           0.003 s
  | Hartree multipole summation                :        0.015 s           0.015 s
  | Integration                                :        0.022 s           0.022 s
  | Solution of K.-S. eqns.                    :        0.001 s           0.001 s
  | Total energy evaluation                    :        0.000 s           0.002 s
------------------------------------------------------------

------------------------------------------------------------
          Begin self-consistency iteration #    3

  Date     :  20190722, Time     :  143619.520
------------------------------------------------------------
  Evaluating new KS density.
  Integration grid: deviation in total charge (<rho> - N_e) =  -8.714807E-12
  Pulay mixing of updated and previous charge densities.

  Evaluating partitioned Hartree potential by multipole expansion.
  | Analytical far-field extrapolation by fixed multipoles:
  | Hartree multipole sum: apparent total charge =  -0.175681E-06
  Summing up the Hartree potential.
  Time summed over all CPUs for potential: real work        0.107 s, elapsed        0.109 s
  | RMS charge density error from multipole expansion :   0.604185E-03

  Integrating Hamiltonian matrix: batch-based integration.
  Time summed over all CPUs for integration: real work        0.166 s, elapsed        0.170 s

  Updating Kohn-Sham eigenvalues, eigenvectors, occupation numbers, and Fermi level.
  Solving generalized eigenproblem
  Updating Kohn-Sham eigenvalues and eigenfunctions.
  Solving real generalised eigenvalue problem by standard LAPACK (fast)
  Determining occupation numbers for Kohn-Sham eigenstates.
  | Chemical potential (Fermi level) in eV                 : -.51382381E+01
  | Error in electron count due to remaining E_F inaccuracy: -.24458657E-10
  | Maximum occupation number of highest empty state:  0.00E+00

  Highest occupied state (VBM) at     -5.13823918 eV
  | Occupation number:      1.00011922

  Lowest unoccupied state (CBM) at    -5.13823707 eV
  | Occupation number:      0.99988078

  Overall HOMO-LUMO gap:      0.00000211 eV.

  Total energy components:
  | Sum of eigenvalues            :         -82.91060990 Ha       -2256.11248515 eV
  | XC energy correction          :         -16.91189543 Ha        -460.19608922 eV
  | XC potential correction       :          21.74569492 Ha         591.73046569 eV
  | Free-atom electrostatic energy:         -71.50995472 Ha       -1945.88487358 eV
  | Hartree energy correction     :          -0.61441037 Ha         -16.71895678 eV
  | Entropy correction            :          -0.00020734 Ha          -0.00564190 eV
  | ---------------------------
  | Total energy                  :        -150.20117551 Ha       -4087.18193904 eV
  | Total energy, T -> 0          :        -150.20138284 Ha       -4087.18758094 eV  <-- do not rely on this value for anything but (periodic) metals
  | Electronic free energy        :        -150.20159018 Ha       -4087.19322283 eV

  Derived energy quantities:
  | Kinetic energy                :         150.19092775 Ha        4086.90308334 eV
  | Electrostatic energy          :        -283.48020782 Ha       -7713.88893316 eV
  | Energy correction for multipole
  | error in Hartree potential    :          -0.00056242 Ha          -0.01530426 eV
  | Sum of eigenvalues per atom                           :       -1128.05624257 eV
  | Total energy (T->0) per atom                          :       -2043.59379047 eV  <-- do not rely on this value for anything but (periodic) metals
  | Electronic free energy per atom                       :       -2043.59661142 eV

  Self-consistency convergence accuracy:
  | Change of charge density      :  0.3298E-01
  | Change of sum of eigenvalues  : -0.4507E+01 eV
  | Change of total energy        :  0.1659E-02 eV

  End self-consistency iteration #     3       :  max(cpu_time)    wall_clock(cpu1)
  | Time for this iteration                    :        0.058 s           0.058 s
  | Charge density update                      :        0.016 s           0.015 s
  | Density mixing                             :        0.001 s           0.001 s
  | Hartree multipole update                   :        0.004 s           0.003 s
  | Hartree multipole summation                :        0.015 s           0.015 s
  | Integration                                :        0.022 s           0.021 s
  | Solution of K.-S. eqns.                    :        0.001 s           0.001 s
  | Total energy evaluation                    :        0.000 s           0.000 s
------------------------------------------------------------

------------------------------------------------------------
          Begin self-consistency iteration #    4

  Date     :  20190722, Time     :  143619.580
------------------------------------------------------------
  Evaluating new KS density.
  Integration grid: deviation in total charge (<rho> - N_e) =  -2.449241E-11
  Pulay mixing of updated and previous charge densities.

  Evaluating partitioned Hartree potential by multipole expansion.
  | Analytical far-field extrapolation by fixed multipoles:
  | Hartree multipole sum: apparent total charge =  -0.177512E-06
  Summing up the Hartree potential.
  Time summed over all CPUs for potential: real work        0.107 s, elapsed        0.112 s
  | RMS charge density error from multipole expansion :   0.637300E-03

  Integrating Hamiltonian matrix: batch-based integration.
  Time summed over all CPUs for integration: real work        0.167 s, elapsed        0.171 s

  Updating Kohn-Sham eigenvalues, eigenvectors, occupation numbers, and Fermi level.
  Solving generalized eigenproblem
  Updating Kohn-Sham eigenvalues and eigenfunctions.
  Solving real generalised eigenvalue problem by standard LAPACK (fast)
  Determining occupation numbers for Kohn-Sham eigenstates.
  | Chemical potential (Fermi level) in eV                 : -.50430845E+01
  | Error in electron count due to remaining E_F inaccuracy: 0.00000000E+00
  | Maximum occupation number of highest empty state:  0.00E+00

  Highest occupied state (VBM) at     -5.04312194 eV
  | Occupation number:      1.00422889

  Lowest unoccupied state (CBM) at    -5.04304698 eV
  | Occupation number:      0.99577111

  Overall HOMO-LUMO gap:      0.00007496 eV.

  Total energy components:
  | Sum of eigenvalues            :         -82.83840124 Ha       -2254.14758762 eV
  | XC energy correction          :         -16.92021233 Ha        -460.42240359 eV
  | XC potential correction       :          21.75655616 Ha         592.02601511 eV
  | Free-atom electrostatic energy:         -71.50995472 Ha       -1945.88487358 eV
  | Hartree energy correction     :          -0.68914693 Ha         -18.75264201 eV
  | Entropy correction            :          -0.00020733 Ha          -0.00564182 eV
  | ---------------------------
  | Total energy                  :        -150.20115907 Ha       -4087.18149168 eV
  | Total energy, T -> 0          :        -150.20136640 Ha       -4087.18713349 eV  <-- do not rely on this value for anything but (periodic) metals
  | Electronic free energy        :        -150.20157373 Ha       -4087.19277531 eV

  Derived energy quantities:
  | Kinetic energy                :         150.24030789 Ha        4088.24678540 eV
  | Electrostatic energy          :        -283.52125462 Ha       -7715.00587349 eV
  | Energy correction for multipole
  | error in Hartree potential    :          -0.00059661 Ha          -0.01623449 eV
  | Sum of eigenvalues per atom                           :       -1127.07379381 eV
  | Total energy (T->0) per atom                          :       -2043.59356675 eV  <-- do not rely on this value for anything but (periodic) metals
  | Electronic free energy per atom                       :       -2043.59638766 eV

  Self-consistency convergence accuracy:
  | Change of charge density      :  0.7547E-02
  | Change of sum of eigenvalues  :  0.1965E+01 eV
  | Change of total energy        :  0.4474E-03 eV

  End self-consistency iteration #     4       :  max(cpu_time)    wall_clock(cpu1)
  | Time for this iteration                    :        0.059 s           0.058 s
  | Charge density update                      :        0.016 s           0.015 s
  | Density mixing                             :        0.001 s           0.001 s
  | Hartree multipole update                   :        0.004 s           0.003 s
  | Hartree multipole summation                :        0.015 s           0.015 s
  | Integration                                :        0.022 s           0.021 s
  | Solution of K.-S. eqns.                    :        0.001 s           0.001 s
  | Total energy evaluation                    :        0.001 s           0.000 s
------------------------------------------------------------

------------------------------------------------------------
          Begin self-consistency iteration #    5

  Date     :  20190722, Time     :  143619.640
------------------------------------------------------------
  Evaluating new KS density.
  Integration grid: deviation in total charge (<rho> - N_e) =  -1.953993E-14
  Pulay mixing of updated and previous charge densities.

  Evaluating partitioned Hartree potential by multipole expansion.
  | Analytical far-field extrapolation by fixed multipoles:
  | Hartree multipole sum: apparent total charge =  -0.178663E-06
  Summing up the Hartree potential.
  Time summed over all CPUs for potential: real work        0.107 s, elapsed        0.109 s
  | RMS charge density error from multipole expansion :   0.644446E-03

  Integrating Hamiltonian matrix: batch-based integration.
  Time summed over all CPUs for integration: real work        0.166 s, elapsed        0.169 s

  Updating Kohn-Sham eigenvalues, eigenvectors, occupation numbers, and Fermi level.
  Solving generalized eigenproblem
  Updating Kohn-Sham eigenvalues and eigenfunctions.
  Solving real generalised eigenvalue problem by standard LAPACK (fast)
  Determining occupation numbers for Kohn-Sham eigenstates.
  | Chemical potential (Fermi level) in eV                 : -.50782008E+01
  | Error in electron count due to remaining E_F inaccuracy: -.37331027E-09
  | Maximum occupation number of highest empty state:  0.00E+00

  Highest occupied state (VBM) at     -5.07861688 eV
  | Occupation number:      1.04692018

  Lowest unoccupied state (CBM) at    -5.07778476 eV
  | Occupation number:      0.95307982

  Overall HOMO-LUMO gap:      0.00083212 eV.

  Total energy components:
  | Sum of eigenvalues            :         -82.86589727 Ha       -2254.89579249 eV
  | XC energy correction          :         -16.91638876 Ha        -460.31835903 eV
  | XC potential correction       :          21.75155869 Ha         591.89002708 eV
  | Free-atom electrostatic energy:         -71.50995472 Ha       -1945.88487358 eV
  | Hartree energy correction     :          -0.66046600 Ha         -17.97219427 eV
  | Entropy correction            :          -0.00020698 Ha          -0.00563214 eV
  | ---------------------------
  | Total energy                  :        -150.20114806 Ha       -4087.18119229 eV
  | Total energy, T -> 0          :        -150.20135504 Ha       -4087.18682443 eV  <-- do not rely on this value for anything but (periodic) metals
  | Electronic free energy        :        -150.20156202 Ha       -4087.19245657 eV

  Derived energy quantities:
  | Kinetic energy                :         150.20890797 Ha        4087.39235017 eV
  | Electrostatic energy          :        -283.49366727 Ha       -7714.25518343 eV
  | Energy correction for multipole
  | error in Hartree potential    :          -0.00059241 Ha          -0.01612035 eV
  | Sum of eigenvalues per atom                           :       -1127.44789625 eV
  | Total energy (T->0) per atom                          :       -2043.59341222 eV  <-- do not rely on this value for anything but (periodic) metals
  | Electronic free energy per atom                       :       -2043.59622828 eV

  Self-consistency convergence accuracy:
  | Change of charge density      :  0.5077E-02
  | Change of sum of eigenvalues  : -0.7482E+00 eV
  | Change of total energy        :  0.2994E-03 eV

  End self-consistency iteration #     5       :  max(cpu_time)    wall_clock(cpu1)
  | Time for this iteration                    :        0.058 s           0.058 s
  | Charge density update                      :        0.016 s           0.015 s
  | Density mixing                             :        0.001 s           0.001 s
  | Hartree multipole update                   :        0.004 s           0.003 s
  | Hartree multipole summation                :        0.015 s           0.015 s
  | Integration                                :        0.022 s           0.021 s
  | Solution of K.-S. eqns.                    :        0.001 s           0.001 s
  | Total energy evaluation                    :        0.000 s           0.000 s
------------------------------------------------------------

------------------------------------------------------------
          Begin self-consistency iteration #    6

  Date     :  20190722, Time     :  143619.700
------------------------------------------------------------
  Evaluating new KS density.
  Integration grid: deviation in total charge (<rho> - N_e) =  -3.734133E-10
  Pulay mixing of updated and previous charge densities.

  Evaluating partitioned Hartree potential by multipole expansion.
  | Analytical far-field extrapolation by fixed multipoles:
  | Hartree multipole sum: apparent total charge =  -0.178741E-06
  Summing up the Hartree potential.
  Time summed over all CPUs for potential: real work        0.107 s, elapsed        0.109 s
  | RMS charge density error from multipole expansion :   0.645103E-03

  Integrating Hamiltonian matrix: batch-based integration.
  Time summed over all CPUs for integration: real work        0.167 s, elapsed        0.171 s

  Updating Kohn-Sham eigenvalues, eigenvectors, occupation numbers, and Fermi level.
  Solving generalized eigenproblem
  Updating Kohn-Sham eigenvalues and eigenfunctions.
  Solving real generalised eigenvalue problem by standard LAPACK (fast)
  Determining occupation numbers for Kohn-Sham eigenstates.
  | Chemical potential (Fermi level) in eV                 : -.50819539E+01
  | Error in electron count due to remaining E_F inaccuracy: 0.18758328E-11
  | Maximum occupation number of highest empty state:  0.00E+00

  Highest occupied state (VBM) at     -5.08195407 eV
  | Occupation number:      1.00001667

  Lowest unoccupied state (CBM) at    -5.08195377 eV
  | Occupation number:      0.99998333

  Overall HOMO-LUMO gap:      0.00000030 eV.

  Total energy components:
  | Sum of eigenvalues            :         -82.86882154 Ha       -2254.97536597 eV
  | XC energy correction          :         -16.91598830 Ha        -460.30746172 eV
  | XC potential correction       :          21.75103516 Ha         591.87578088 eV
  | Free-atom electrostatic energy:         -71.50995472 Ha       -1945.88487358 eV
  | Hartree energy correction     :          -0.65741706 Ha         -17.88922848 eV
  | Entropy correction            :          -0.00020734 Ha          -0.00564190 eV
  | ---------------------------
  | Total energy                  :        -150.20114647 Ha       -4087.18114887 eV
  | Total energy, T -> 0          :        -150.20135380 Ha       -4087.18679076 eV  <-- do not rely on this value for anything but (periodic) metals
  | Electronic free energy        :        -150.20156114 Ha       -4087.19243266 eV

  Derived energy quantities:
  | Kinetic energy                :         150.20569996 Ha        4087.30505574 eV
  | Electrostatic energy          :        -283.49085813 Ha       -7714.17874289 eV
  | Energy correction for multipole
  | error in Hartree potential    :          -0.00059193 Ha          -0.01610711 eV
  | Sum of eigenvalues per atom                           :       -1127.48768298 eV
  | Total energy (T->0) per atom                          :       -2043.59339538 eV  <-- do not rely on this value for anything but (periodic) metals
  | Electronic free energy per atom                       :       -2043.59621633 eV

  Self-consistency convergence accuracy:
  | Change of charge density      :  0.1464E-01
  | Change of sum of eigenvalues  : -0.7957E-01 eV
  | Change of total energy        :  0.4343E-04 eV

  End self-consistency iteration #     6       :  max(cpu_time)    wall_clock(cpu1)
  | Time for this iteration                    :        0.058 s           0.058 s
  | Charge density update                      :        0.015 s           0.015 s
  | Density mixing                             :        0.001 s           0.001 s
  | Hartree multipole update                   :        0.004 s           0.003 s
  | Hartree multipole summation                :        0.015 s           0.015 s
  | Integration                                :        0.022 s           0.021 s
  | Solution of K.-S. eqns.                    :        0.001 s           0.001 s
  | Total energy evaluation                    :        0.000 s           0.000 s
------------------------------------------------------------

------------------------------------------------------------
          Begin self-consistency iteration #    7

  Date     :  20190722, Time     :  143619.764
------------------------------------------------------------
  Evaluating new KS density.
  Integration grid: deviation in total charge (<rho> - N_e) =   2.202682E-12
  Pulay mixing of updated and previous charge densities.

  Evaluating partitioned Hartree potential by multipole expansion.
  | Analytical far-field extrapolation by fixed multipoles:
  | Hartree multipole sum: apparent total charge =  -0.177187E-06
  Summing up the Hartree potential.
  Time summed over all CPUs for potential: real work        0.107 s, elapsed        0.109 s
  | RMS charge density error from multipole expansion :   0.646427E-03

  Integrating Hamiltonian matrix: batch-based integration.
  Time summed over all CPUs for integration: real work        0.168 s, elapsed        0.175 s

  Updating Kohn-Sham eigenvalues, eigenvectors, occupation numbers, and Fermi level.
  Solving generalized eigenproblem
  Updating Kohn-Sham eigenvalues and eigenfunctions.
  Solving real generalised eigenvalue problem by standard LAPACK (fast)
  Determining occupation numbers for Kohn-Sham eigenstates.
  | Chemical potential (Fermi level) in eV                 : -.50841234E+01
  | Error in electron count due to remaining E_F inaccuracy: 0.26248514E-09
  | Maximum occupation number of highest empty state:  0.00E+00

  Highest occupied state (VBM) at     -5.08412463 eV
  | Occupation number:      1.00013903

  Lowest unoccupied state (CBM) at    -5.08412216 eV
  | Occupation number:      0.99986097

  Overall HOMO-LUMO gap:      0.00000246 eV.

  Total energy components:
  | Sum of eigenvalues            :         -82.87010286 Ha       -2255.01023257 eV
  | XC energy correction          :         -16.91593931 Ha        -460.30612880 eV
  | XC potential correction       :          21.75096245 Ha         591.87380236 eV
  | Free-atom electrostatic energy:         -71.50995472 Ha       -1945.88487358 eV
  | Hartree energy correction     :          -0.65611199 Ha         -17.85371577 eV
  | Entropy correction            :          -0.00020734 Ha          -0.00564190 eV
  | ---------------------------
  | Total energy                  :        -150.20114645 Ha       -4087.18114835 eV
  | Total energy, T -> 0          :        -150.20135378 Ha       -4087.18679025 eV  <-- do not rely on this value for anything but (periodic) metals
  | Electronic free energy        :        -150.20156112 Ha       -4087.19243214 eV

  Derived energy quantities:
  | Kinetic energy                :         150.20758043 Ha        4087.35622581 eV
  | Electrostatic energy          :        -283.49278756 Ha       -7714.23124536 eV
  | Energy correction for multipole
  | error in Hartree potential    :          -0.00059254 Ha          -0.01612395 eV
  | Sum of eigenvalues per atom                           :       -1127.50511628 eV
  | Total energy (T->0) per atom                          :       -2043.59339512 eV  <-- do not rely on this value for anything but (periodic) metals
  | Electronic free energy per atom                       :       -2043.59621607 eV

  Self-consistency convergence accuracy:
  | Change of charge density      :  0.2594E-03
  | Change of sum of eigenvalues  : -0.3487E-01 eV
  | Change of total energy        :  0.5184E-06 eV

  End self-consistency iteration #     7       :  max(cpu_time)    wall_clock(cpu1)
  | Time for this iteration                    :        0.060 s           0.058 s
  | Charge density update                      :        0.017 s           0.015 s
  | Density mixing                             :        0.002 s           0.001 s
  | Hartree multipole update                   :        0.004 s           0.003 s
  | Hartree multipole summation                :        0.015 s           0.015 s
  | Integration                                :        0.023 s           0.022 s
  | Solution of K.-S. eqns.                    :        0.001 s           0.001 s
  | Total energy evaluation                    :        0.000 s           0.001 s
------------------------------------------------------------

------------------------------------------------------------
          Begin self-consistency iteration #    8

  Date     :  20190722, Time     :  143619.825
------------------------------------------------------------
  Evaluating new KS density.
  Integration grid: deviation in total charge (<rho> - N_e) =   2.623572E-10
  Pulay mixing of updated and previous charge densities.

  Evaluating partitioned Hartree potential by multipole expansion.
  | Analytical far-field extrapolation by fixed multipoles:
  | Hartree multipole sum: apparent total charge =  -0.177247E-06
  Summing up the Hartree potential.
  Time summed over all CPUs for potential: real work        0.107 s, elapsed        0.109 s
  | RMS charge density error from multipole expansion :   0.646416E-03

  Integrating Hamiltonian matrix: batch-based integration.
  Time summed over all CPUs for integration: real work        0.168 s, elapsed        0.171 s

  Updating Kohn-Sham eigenvalues, eigenvectors, occupation numbers, and Fermi level.
  Solving generalized eigenproblem
  Updating Kohn-Sham eigenvalues and eigenfunctions.
  Solving real generalised eigenvalue problem by standard LAPACK (fast)
  Determining occupation numbers for Kohn-Sham eigenstates.
  | Chemical potential (Fermi level) in eV                 : -.50839941E+01
  | Error in electron count due to remaining E_F inaccuracy: 0.21714541E-09
  | Maximum occupation number of highest empty state:  0.00E+00

  Highest occupied state (VBM) at     -5.08399413 eV
  | Occupation number:      1.00000517

  Lowest unoccupied state (CBM) at    -5.08399404 eV
  | Occupation number:      0.99999483

  Overall HOMO-LUMO gap:      0.00000009 eV.

  Total energy components:
  | Sum of eigenvalues            :         -82.87000379 Ha       -2255.00753658 eV
  | XC energy correction          :         -16.91594868 Ha        -460.30638358 eV
  | XC potential correction       :          21.75097482 Ha         591.87413919 eV
  | Free-atom electrostatic energy:         -71.50995472 Ha       -1945.88487358 eV
  | Hartree energy correction     :          -0.65621409 Ha         -17.85649379 eV
  | Entropy correction            :          -0.00020734 Ha          -0.00564190 eV
  | ---------------------------
  | Total energy                  :        -150.20114645 Ha       -4087.18114835 eV
  | Total energy, T -> 0          :        -150.20135378 Ha       -4087.18679024 eV  <-- do not rely on this value for anything but (periodic) metals
  | Electronic free energy        :        -150.20156112 Ha       -4087.19243214 eV

  Derived energy quantities:
  | Kinetic energy                :         150.20763538 Ha        4087.35772118 eV
  | Electrostatic energy          :        -283.49283315 Ha       -7714.23248594 eV
  | Energy correction for multipole
  | error in Hartree potential    :          -0.00059255 Ha          -0.01612413 eV
  | Sum of eigenvalues per atom                           :       -1127.50376829 eV
  | Total energy (T->0) per atom                          :       -2043.59339512 eV  <-- do not rely on this value for anything but (periodic) metals
  | Electronic free energy per atom                       :       -2043.59621607 eV

  Self-consistency convergence accuracy:
  | Change of charge density      :  0.4543E-04
  | Change of sum of eigenvalues  :  0.2696E-02 eV
  | Change of total energy        :  0.1971E-08 eV

  Electronic self-consistency reached - switching on the force computation.

  End self-consistency iteration #     8       :  max(cpu_time)    wall_clock(cpu1)
  | Time for this iteration                    :        0.060 s           0.060 s
  | Charge density & force component update    :        0.016 s           0.015 s
  | Density mixing                             :        0.002 s           0.002 s
  | Hartree multipole update                   :        0.004 s           0.004 s
  | Hartree multipole summation                :        0.014 s           0.014 s
  | Integration                                :        0.022 s           0.022 s
  | Solution of K.-S. eqns.                    :        0.001 s           0.001 s
  | Total energy evaluation                    :        0.000 s           0.001 s
------------------------------------------------------------

------------------------------------------------------------
          Begin self-consistency iteration #    9

  Date     :  20190722, Time     :  143619.887
------------------------------------------------------------
  Evaluating new KS density.
  Integration grid: deviation in total charge (<rho> - N_e) =   2.171490E-10
  Pulay mixing of updated and previous charge densities.

  Evaluating partitioned Hartree potential by multipole expansion.
  | Analytical far-field extrapolation by fixed multipoles:
  | Hartree multipole sum: apparent total charge =  -0.177419E-06
  Summing up the Hartree potential.
  Time summed over all CPUs for potential: real work        0.277 s, elapsed        0.286 s
  | RMS charge density error from multipole expansion :   0.646460E-03

  Integrating Hamiltonian matrix: batch-based integration.
  Time summed over all CPUs for integration: real work        0.166 s, elapsed        0.170 s

  Updating Kohn-Sham eigenvalues, eigenvectors, occupation numbers, and Fermi level.
  Solving generalized eigenproblem
  Updating Kohn-Sham eigenvalues and eigenfunctions.
  Solving real generalised eigenvalue problem by standard LAPACK (fast)
  Determining occupation numbers for Kohn-Sham eigenstates.
  | Chemical potential (Fermi level) in eV                 : -.50839678E+01
  | Error in electron count due to remaining E_F inaccuracy: 0.20905233E-09
  | Maximum occupation number of highest empty state:  0.00E+00

  Highest occupied state (VBM) at     -5.08396783 eV
  | Occupation number:      1.00000166

  Lowest unoccupied state (CBM) at    -5.08396780 eV
  | Occupation number:      0.99999834

  Overall HOMO-LUMO gap:      0.00000003 eV.

  Total energy components:
  | Sum of eigenvalues            :         -82.86998713 Ha       -2255.00708333 eV
  | XC energy correction          :         -16.91595021 Ha        -460.30642523 eV
  | XC potential correction       :          21.75097683 Ha         591.87419369 eV
  | Free-atom electrostatic energy:         -71.50995472 Ha       -1945.88487358 eV
  | Hartree energy correction     :          -0.65623121 Ha         -17.85695991 eV
  | Entropy correction            :          -0.00020734 Ha          -0.00564190 eV
  | ---------------------------
  | Total energy                  :        -150.20114645 Ha       -4087.18114836 eV
  | Total energy, T -> 0          :        -150.20135378 Ha       -4087.18679025 eV  <-- do not rely on this value for anything but (periodic) metals
  | Electronic free energy        :        -150.20156112 Ha       -4087.19243215 eV

  Derived energy quantities:
  | Kinetic energy                :         150.20762647 Ha        4087.35747872 eV
  | Electrostatic energy          :        -283.49282271 Ha       -7714.23220184 eV
  | Energy correction for multipole
  | error in Hartree potential    :          -0.00059256 Ha          -0.01612446 eV
  | Sum of eigenvalues per atom                           :       -1127.50354167 eV
  | Total energy (T->0) per atom                          :       -2043.59339513 eV  <-- do not rely on this value for anything but (periodic) metals
  | Electronic free energy per atom                       :       -2043.59621607 eV

  atomic forces [eV/Ang]:
  -----------------------
  atom #    1
   Hellmann-Feynman              :  0.685933E-10 -0.548192E-01 -0.246138E+02
   Ionic forces                  :  0.000000E+00  0.000000E+00  0.000000E+00
   Multipole                     : -0.759564E-13  0.989520E-04  0.446715E-01
   Pulay + GGA                   :  0.000000E+00  0.000000E+00  0.000000E+00
   ----------------------------------------------------------------
   Total forces(   1)            :  0.685174E-10 -0.547202E-01 -0.245692E+02
  atom #    2
   Hellmann-Feynman              :  0.328636E-11  0.548192E-01  0.246138E+02
   Ionic forces                  :  0.000000E+00  0.000000E+00  0.000000E+00
   Multipole                     :  0.228471E-13 -0.989520E-04 -0.446715E-01
   Pulay + GGA                   :  0.000000E+00  0.000000E+00  0.000000E+00
   ----------------------------------------------------------------
   Total forces(   2)            :  0.330921E-11  0.547202E-01  0.245692E+02


  Self-consistency convergence accuracy:
  | Change of charge density      :  0.4699E-05
  | Change of sum of eigenvalues  :  0.4532E-03 eV
  | Change of total energy        : -0.7128E-08 eV
  | Change of forces              :  0.2457E+02 eV/A

  End self-consistency iteration #     9       :  max(cpu_time)    wall_clock(cpu1)
  | Time for this iteration                    :        0.081 s           0.081 s
  | Charge density & force component update    :        0.015 s           0.015 s
  | Density mixing                             :        0.002 s           0.002 s
  | Hartree multipole update                   :        0.003 s           0.003 s
  | Hartree multipole summation                :        0.037 s           0.037 s
  | Integration                                :        0.022 s           0.021 s
  | Solution of K.-S. eqns.                    :        0.001 s           0.001 s
  | Total energy evaluation                    :        0.001 s           0.002 s
------------------------------------------------------------

------------------------------------------------------------
          Begin self-consistency iteration #   10

  Date     :  20190722, Time     :  143619.971
------------------------------------------------------------
  Evaluating new KS density and force components.
  Integration grid: deviation in total charge (<rho> - N_e) =   2.090665E-10
  Pulay mixing of updated and previous charge densities.

  Evaluating partitioned Hartree potential by multipole expansion.
  | Analytical far-field extrapolation by fixed multipoles:
  | Hartree multipole sum: apparent total charge =  -0.177417E-06
  Summing up the Hartree potential.
  Time summed over all CPUs for potential: real work        0.276 s, elapsed        0.285 s
  | RMS charge density error from multipole expansion :   0.646460E-03

  Integrating Hamiltonian matrix: batch-based integration.
  Time summed over all CPUs for integration: real work        0.169 s, elapsed        0.187 s

  Updating Kohn-Sham eigenvalues, eigenvectors, occupation numbers, and Fermi level.
  Solving generalized eigenproblem
  Updating Kohn-Sham eigenvalues and eigenfunctions.
  Solving real generalised eigenvalue problem by standard LAPACK (fast)
  Determining occupation numbers for Kohn-Sham eigenstates.
  | Chemical potential (Fermi level) in eV                 : -.50839662E+01
  | Error in electron count due to remaining E_F inaccuracy: 0.20854074E-09
  | Maximum occupation number of highest empty state:  0.00E+00

  Highest occupied state (VBM) at     -5.08396624 eV
  | Occupation number:      1.00000094

  Lowest unoccupied state (CBM) at    -5.08396623 eV
  | Occupation number:      0.99999906

  Overall HOMO-LUMO gap:      0.00000002 eV.

  Total energy components:
  | Sum of eigenvalues            :         -82.86998576 Ha       -2255.00704601 eV
  | XC energy correction          :         -16.91595036 Ha        -460.30642950 eV
  | XC potential correction       :          21.75097703 Ha         591.87419928 eV
  | Free-atom electrostatic energy:         -71.50995472 Ha       -1945.88487358 eV
  | Hartree energy correction     :          -0.65623263 Ha         -17.85699854 eV
  | Entropy correction            :          -0.00020734 Ha          -0.00564190 eV
  | ---------------------------
  | Total energy                  :        -150.20114645 Ha       -4087.18114836 eV
  | Total energy, T -> 0          :        -150.20135378 Ha       -4087.18679025 eV  <-- do not rely on this value for anything but (periodic) metals
  | Electronic free energy        :        -150.20156112 Ha       -4087.19243215 eV

  Derived energy quantities:
  | Kinetic energy                :         150.20762737 Ha        4087.35750322 eV
  | Electrostatic energy          :        -283.49282346 Ha       -7714.23222207 eV
  | Energy correction for multipole
  | error in Hartree potential    :          -0.00059256 Ha          -0.01612449 eV
  | Sum of eigenvalues per atom                           :       -1127.50352300 eV
  | Total energy (T->0) per atom                          :       -2043.59339513 eV  <-- do not rely on this value for anything but (periodic) metals
  | Electronic free energy per atom                       :       -2043.59621607 eV

  atomic forces [eV/Ang]:
  -----------------------
  atom #    1
   Hellmann-Feynman              : -0.432356E-11 -0.548191E-01 -0.246138E+02
   Ionic forces                  :  0.000000E+00  0.000000E+00  0.000000E+00
   Multipole                     :  0.966808E-13  0.989522E-04  0.446715E-01
   Pulay + GGA                   : -0.187341E-10  0.332187E-01  0.149128E+02
   ----------------------------------------------------------------
   Total forces(   1)            : -0.229609E-10 -0.215015E-01 -0.965631E+01
  atom #    2
   Hellmann-Feynman              : -0.181557E-11  0.548191E-01  0.246138E+02
   Ionic forces                  :  0.000000E+00  0.000000E+00  0.000000E+00
   Multipole                     :  0.105873E-13 -0.989522E-04 -0.446715E-01
   Pulay + GGA                   :  0.970529E-13 -0.332187E-01 -0.149128E+02
   ----------------------------------------------------------------
   Total forces(   2)            : -0.170793E-11  0.215015E-01  0.965631E+01


  Self-consistency convergence accuracy:
  | Change of charge density      :  0.5640E-06
  | Change of sum of eigenvalues  :  0.3732E-04 eV
  | Change of total energy        : -0.1029E-09 eV
  | Change of forces              :  0.5253E-04 eV/A

  Writing Kohn-Sham eigenvalues.

  State    Occupation    Eigenvalue [Ha]    Eigenvalue [eV]
      1       2.00000         -18.889873         -514.01961
      2       2.00000         -18.889654         -514.01363
      3       2.00000          -1.267293          -34.48480
      4       2.00000          -0.701439          -19.08712
      5       2.00000          -0.502548          -13.67503
      6       2.00000          -0.502548          -13.67503
      7       2.00000          -0.494805          -13.46433
      8       1.00000          -0.186832           -5.08397
      9       1.00000          -0.186832           -5.08397
     10       0.00000           0.098748            2.68707
     11       0.00000           0.105369            2.86723
     12       0.00000           0.133112            3.62217
     13       0.00000           0.133112            3.62217
     14       0.00000           0.210346            5.72382

  Highest occupied state (VBM) at     -5.08396624 eV
  | Occupation number:      1.00000094

  Lowest unoccupied state (CBM) at    -5.08396623 eV
  | Occupation number:      0.99999906

  Overall HOMO-LUMO gap:      0.00000002 eV.

  Self-consistency cycle converged.

  End self-consistency iteration #    10       :  max(cpu_time)    wall_clock(cpu1)
  | Time for this iteration                    :        0.119 s           0.120 s
  | Charge density & force component update    :        0.051 s           0.050 s
  | Density mixing                             :        0.002 s           0.002 s
  | Hartree multipole update                   :        0.003 s           0.003 s
  | Hartree multipole summation                :        0.037 s           0.037 s
  | Integration                                :        0.024 s           0.023 s
  | Solution of K.-S. eqns.                    :        0.001 s           0.002 s
  | Total energy evaluation                    :        0.002 s           0.001 s
------------------------------------------------------------
  Writing cluster restart information to file restart
  ------------------------------------------------------------
   Computing monopole / dipole moments for complete molecule:
  | Total electronic charge [e]         :          0.160000000002102E+02
  | Total ionic charge [e]              :          0.160000000000000E+02
  | Total charge [e]                    :         -0.210206962947268E-09
  | Total dipole moment [eAng]          :          0.231183108362343E-13        -0.260132403570867E-12        -0.126972460666437E-09
  | Absolute dipole moment              :          0.126972729241414E-09 eAng              /                   0.609780961669003E-09 Debye  .
  Removing unitary transformations (pure translations, rotations) from forces on atoms.
  Atomic forces before filtering:
  | Net force on center of mass :  -0.246689E-10 -0.204585E-11  0.181789E-10 eV/A
  | Net torque on center of mass:  -0.674248E-06  0.119312E-10 -0.265663E-13 eV
  Atomic forces after filtering:
  | Net force on center of mass :  -0.259615E-26  0.278760E-17  0.142725E-14 eV/A
  | Net torque on center of mass:  -0.295026E-17 -0.145746E-26  0.324519E-29 eV

  Energy and forces in a compact form:
  | Total energy uncorrected      :         -0.408718114835521E+04 eV
  | Total energy corrected        :         -0.408718679025092E+04 eV  <-- do not rely on this value for anything but (periodic) metals
  | Electronic free energy        :         -0.408719243214663E+04 eV
  Total atomic forces (unitary forces cleaned) [eV/Ang]:
  |   1          0.000000000000000E+00         -0.215008565961707E-01         -0.965630629616079E+01
  |   2         -0.259615079450449E-26          0.215008565961707E-01          0.965630629616079E+01

  ------------------------------------ 
  Start decomposition of the XC Energy 
  ------------------------------------ 
  Hartree-Fock part   :          0.000000000 Ha              0.000000000 eV
  ------------------------------------ 
  X Energy            :        -16.375637651 Ha           -445.603772560 eV
  C Energy GGA        :         -0.540312712 Ha            -14.702656943 eV
  Total XC Energy     :        -16.915950363 Ha           -460.306429503 eV
  LDA X and C from self-consistent density 
  X Energy LDA        :        -14.881002756 Ha           -404.932687727 eV
  C Energy LDA        :         -1.116040549 Ha            -30.369008510 eV
  ------------------------------------ 
  End decomposition of the XC Energy 
  ------------------------------------ 

------------------------------------------------------------------------------
  Final output of selected total energy values:

  The following output summarizes some interesting total energy values
  at the end of a run (AFTER all relaxation, molecular dynamics, etc.).

  | Total energy of the DFT / Hartree-Fock s.c.f. calculation      :          -4087.181148355 eV
  | Final zero-broadening corrected energy (caution - metals only) :          -4087.186790251 eV
  | For reference only, the value of 1 Hartree used in FHI-aims is :             27.211384500 eV

  Before relying on these values, please be sure to understand exactly which
  total energy value is referred to by a given number. Different objects may
  all carry the same name 'total energy'. Definitions:

  Total energy of the DFT / Hartree-Fock s.c.f. calculation:
  | Note that this energy does not include ANY quantities calculated after the
  | s.c.f. cycle, in particular not ANY RPA, MP2, etc. many-body perturbation terms.

  Final zero-broadening corrected energy:
  | For metallic systems only, a broadening of the occupation numbers at the Fermi
  | level can be extrapolated back to zero broadening by an electron-gas inspired
  | formula. For all systems that are not real metals, this value can be
  | meaningless and should be avoided.

------------------------------------------------------------------------------
  Methods described in the following list of references were used in this FHI-aims run.
  If you publish the results, please make sure to cite these reference if they apply.
  FHI-aims is an academic code, and for our developers (often, Ph.D. students
  and postdocs), scientific credit in the community is essential.
  Thank you for helping us!

  For any use of FHI-aims, please cite:

    Volker Blum, Ralf Gehrke, Felix Hanke, Paula Havu, Ville Havu,
    Xinguo Ren, Karsten Reuter, and Matthias Scheffler
    'Ab initio molecular simulations with numeric atom-centered orbitals'
    Computer Physics Communications 180, 2175-2196 (2009)
    http://dx.doi.org/10.1016/j.cpc.2009.06.022


  For the real-space grid partitioning and parallelization used in this calculation, please cite:

    Ville Havu, Volker Blum, Paula Havu, and Matthias Scheffler,
    'Efficient O(N) integration for all-electron electronic structure calculation'
    'using numerically tabulated basis functions'
    Journal of Computational Physics 228, 8367-8379 (2009).
    http://dx.doi.org/10.1016/j.jcp.2009.08.008

  Of course, there are many other important community references, e.g., those cited in the
  above references. Our list is limited to references that describe implementations in the
  FHI-aims code. The reason is purely practical (length of this list) - please credit others as well.

------------------------------------------------------------
          Leaving FHI-aims.
          Date     :  20190722, Time     :  143620.128

          Computational steps:
          | Number of self-consistency cycles          :           10

          Detailed time accounting                     :  max(cpu_time)    wall_clock(cpu1)
          | Total time                                 :        0.974 s           0.998 s
          | Preparation time                           :        0.147 s           0.159 s
          | Grid partitioning                          :        0.016 s           0.016 s
          | Preloading free-atom quantities on grid    :        0.018 s           0.017 s
          | Free-atom superposition energy             :        0.004 s           0.005 s
          | Total time for integrations                :        0.255 s           0.247 s
          | Total time for solution of K.-S. equations :        0.018 s           0.020 s
          | Total time for density & force components  :        0.195 s           0.185 s
          | Total time for mixing                      :        0.015 s           0.014 s
          | Total time for Hartree multipole update    :        0.038 s           0.031 s
          | Total time for Hartree multipole sum       :        0.193 s           0.193 s
          | Total time for total energy evaluation     :        0.006 s           0.008 s

          Have a nice day.
------------------------------------------------------------
