  MPI-parallelism will be employed.
------------------------------------------------------------
          Invoking FHI-aims ...
          Version 160328_3
          Compiled on 2019/06/10 at 14:55:49 on host taito-login3.csc.fi.

          When using FHI-aims, please cite the following reference:

          Volker Blum, Ralf Gehrke, Felix Hanke, Paula Havu,
          Ville Havu, Xinguo Ren, Karsten Reuter, and Matthias Scheffler,
          'Ab Initio Molecular Simulations with Numeric Atom-Centered Orbitals',
          Computer Physics Communications 180, 2175-2196 (2009)

          For any questions about FHI-aims, please visit the aimsclub website
          with its forums and wiki. Contributions to both the forums and the
          wiki are warmly encouraged - they are for you, and everyone is welcome there.

------------------------------------------------------------

  Date     :  20190722, Time     :  144531.897
  Time zero on CPU 1             :   0.609890000000000E-01  s.
  Internal wall clock time zero  :           333038731.897  s.

  Using        4 parallel tasks.
  Task        0 on host c798 reporting.
  Task        1 on host c798 reporting.
  Task        2 on host c798 reporting.
  Task        3 on host c798 reporting.

  Performing system and environment tests:
  | Environment variable OMP_NUM_THREADS correctly set to 1.
  | Maximum stacksize for task 0: unlimited
  | Maximum stacksize for task 1: unlimited
  | Maximum stacksize for task 2: unlimited
  | Maximum stacksize for task 3: unlimited
  | Current stacksize for task 0: 1024 [Mb]
  | Current stacksize for task 1: 1024 [Mb]
  | Current stacksize for task 2: 1024 [Mb]
  | Current stacksize for task 3: 1024 [Mb]
  | Checking for scalapack...
  | No scalapack compiled in.

  Obtaining array dimensions for all initial allocations:
  
  -----------------------------------------------------------------------
  Parsing control.in (first pass over file, find array dimensions only).
  The contents of control.in will be repeated verbatim below
  unless switched off by setting 'verbatim_writeout .false.' .
  in the first line of control.in .
  -----------------------------------------------------------------------
  
    #  Physical model settings
    #
  
    xc                            pbe
    charge                        1.0
    relativistic                  none
  #  default_initial_moment        0.0
    spin                          none
  #  vdw_correction_hirshfeld
  
    #  SCF convergence settings
    #
  
    sc_accuracy_rho               1E-4
    sc_accuracy_eev               1E-2
    sc_accuracy_etot              1E-8
    sc_iter_limit                 100
  
    #  Occupation settings
    #
  
    restart                       restart
  #  force_occupation_projector      5 1 1.0 5 5 # ion 4
  
    #  Relaxation
    #
  
    ##########relax_geometry                bfgs    1.e-4
  
  
  ################################################################################
  #
  #  FHI-aims code project
  #  VB, Fritz-Haber Institut, 2007
  #
  #  Suggested "safe" defaults for O atom (to be pasted into control.in file)
  #
  ################################################################################
    species        O
  #     global species definitions
      nucleus             8
      mass                15.9994
  #
      l_hartree           8
  #
      cut_pot             4.0  2.0  1.0
      basis_dep_cutoff    0.d0
  #
      radial_base         36 7.0
      radial_multiplier   2
       angular_grids specified
        division   0.4087  110
        division   0.5181  194
        division   0.6184  302
        division   0.7315  434
        division   0.7934  590
  #      division   0.9656  770
  #      division   1.4041  974
  #      outer_grid 974
        outer_grid 590
  ################################################################################
  #
  #  Definition of "minimal" basis
  #
  ################################################################################
  #     valence basis states
      valence      2  s   2.
      valence      2  p   4.
  #     ion occupancy
      ion_occ      2  s   1.
      ion_occ      2  p   3.
  ################################################################################
  #
  #  Suggested additional basis functions. For production calculations,
  #  uncomment them one after another (the most important basis functions are
  #  listed first).
  #
  #  Constructed for dimers: 1.0 A, 1.208 A, 1.5 A, 2.0 A, 3.0 A
  #
  ################################################################################
  #  "First tier" - improvements: -699.05 meV to -159.38 meV
       hydro 2 p 1.8
       hydro 3 d 7.6
       hydro 3 s 6.4
  #  "Second tier" - improvements: -49.91 meV to -5.39 meV
       hydro 4 f 11.6
       hydro 3 p 6.2
       hydro 3 d 5.6
       hydro 5 g 17.6
       hydro 1 s 0.75
  #  "Third tier" - improvements: -2.83 meV to -0.50 meV
  #     ionic 2 p auto
  #     hydro 4 f 10.8
  #     hydro 4 d 4.7
  #     hydro 2 s 6.8
  #  "Fourth tier" - improvements: -0.40 meV to -0.12 meV
  #     hydro 3 p 5
  #     hydro 3 s 3.3
  #     hydro 5 g 15.6
  #     hydro 4 f 17.6
  #     hydro 4 d 14
  # Further basis functions - -0.08 meV and below
  #     hydro 3 s 2.1
  #     hydro 4 d 11.6
  #     hydro 3 p 16
  #     hydro 2 s 17.2
  compute_forces .true.
  final_forces_cleaned .true.
  output dipole
  
  -----------------------------------------------------------------------
  Completed first pass over input file control.in .
  -----------------------------------------------------------------------
  
  
  -----------------------------------------------------------------------
  Parsing geometry.in (first pass over file, find array dimensions only).
  The contents of geometry.in will be repeated verbatim below
  unless switched off by setting 'verbatim_writeout .false.' .
  in the first line of geometry.in .
  -----------------------------------------------------------------------
  
  #
  # temporary structure-file for finite-difference calculation of forces
  # displacement   0.0025 of \# atom     1 direction     1
  #
  atom   -0.00000000   -0.00000000    0.04235921   O
  atom    0.00000000    0.00250000    1.16514079   O
  
  -----------------------------------------------------------------------
  Completed first pass over input file geometry.in .
  -----------------------------------------------------------------------
  

  Basic array size parameters:
  | Number of species                 :        1
  | Number of atoms                   :        2
  | Max. basis fn. angular momentum   :        4
  | Max. atomic/ionic basis occupied n:        2
  | Max. number of basis fn. types    :        2
  | Max. radial fns per species/type  :        8
  | Max. logarithmic grid size        :     1301
  | Max. radial integration grid size :       73
  | Max. angular integration grid size:      590
  | Max. angular grid division number :        8
  | Radial grid for Hartree potential :     1301
  | Number of spin channels           :        1

------------------------------------------------------------
          Reading file control.in.
------------------------------------------------------------
  XC: Using PBE gradient-corrected functionals.
  Charged system requested: Charge =   0.100000E+01.
  Non-relativistic treatment of kinetic energy.
  Spin treatment: No spin polarisation.
  Convergence accuracy of self-consistent charge density:  0.1000E-03
  Convergence accuracy of sum of eigenvalues:  0.1000E-01
  Convergence accuracy of total energy:  0.1000E-07
  Maximum number of s.-c. iterations  :   100
  Restart file specified as : restart
  | Reading information from existing file.
 
  Reading configuration options for species O                   .
  | Found nuclear charge :   8.0000
  | Found atomic mass :    15.9994000000000      amu
  | Found l_max for Hartree potential  :   8
  | Found cutoff potl. onset [A], width [A], scale factor :    4.00000    2.00000    1.00000
  | Threshold for basis-dependent cutoff potential is   0.000000E+00
  | Found data for basic radial integration grid :    36 points, outermost radius =    7.000 A
  | Found multiplier for basic radial grid :   2
  | Found angular grid specification: user-specified.
  | Specified grid contains     6 separate shells.
  | Check grid settings after all constraints further below.
  | Found free-atom valence shell :  2 s   2.000
  | Found free-atom valence shell :  2 p   4.000
  | No ionic wave fns used. Skipping ion_occ.
  | No ionic wave fns used. Skipping ion_occ.
  | Found hydrogenic basis function :  2 p   1.800
  | Found hydrogenic basis function :  3 d   7.600
  | Found hydrogenic basis function :  3 s   6.400
  | Found hydrogenic basis function :  4 f  11.600
  | Found hydrogenic basis function :  3 p   6.200
  | Found hydrogenic basis function :  3 d   5.600
  | Found hydrogenic basis function :  5 g  17.600
  | Found hydrogenic basis function :  1 s   0.750
  Species O                   : Missing cutoff potential type.
  Defaulting to exp(1/x)/(1-x)^2 type cutoff potential.
  Species O : No 'logarithmic' tag. Using default grid for free atom:
  | Default logarithmic grid data [bohr] : 0.1000E-03 0.1000E+03 0.1012E+01
  Species O : On-site basis accuracy parameter (for Gram-Schmidt orthonormalisation) not specified.
  Using default value basis_acc =  0.1000000E-03.
  Species O                   : Using default innermost maximum threshold i_radial=  2 for radial functions.
  Species O                   : Default cutoff onset for free atom density etc. : 0.40000000E+01 AA.
  Species O                   : Basic radial grid will be enhanced according to radial_multiplier =   2, to contain    73 grid points.
  Forces will be computed.
  Cleaning forces before final output.
  Dipole moment will be written out.
 
  Finished reading input file 'control.in'. Consistency checks are next.
 
  Target number of points in a grid batch is not set. Defaulting to  100
  Method for grid partitioning is not set. Defaulting to parallel hash+maxmin partitioning.
  Batch size limit is not set. Defaulting to    200
  By default, will store active basis functions for each batch.
  If in need of memory, prune_basis_once .false. can be used to disable this option.
  communication_type for Hartree potential was not specified.
  Defaulting to calc_hartree .
  Defaulting to Pulay charge density mixer.
  Pulay mixer: Number of relevant iterations not set.
  Defaulting to    8 iterations.
  Pulay mixer: Number of initial linear mixing iterations not set.
  Defaulting to    0 iterations.
  Work space size for distributed Hartree potential not set.
  Defaulting to   0.200000E+03 MB.
  Mixing parameter for charge density mixing has not been set.
  Using default: charge_mix_param =     0.2000.
  Algorithm-dependent basis array size parameters:
  | n_max_pulay                         :        8
  Geometry relaxation not requested: no relaxation will be performed.
  Force calculation: scf convergence accuracy of forces not set.
  Defaulting to  0.1000E-03 eV/A.
  Handling of forces: Unphysical translation and rotation will be removed from forces.
  No accuracy limit for integral partition fn. given. Defaulting to  0.1000E-14.
  No threshold value for u(r) in integrations given. Defaulting to  0.1000E-05.
  No occupation type (smearing scheme) given. Defaulting to Gaussian broadening, width =  0.1000E-01 eV.
  No accuracy for occupation numbers given. Defaulting to  0.1000E-07.
  No threshold value for occupation numbers given. Defaulting to  0.0000E+00.
  No accuracy for fermi level given. Defaulting to  0.1000E-19.
  Maximum # of iterations to find E_F not set. Defaulting to  200.
  Preferred method for the eigenvalue solver ('KS_method') not specified in 'control.in'.
  Calling blacs routine to test compilation state
  The best choice would be 'elpa', but your version of FHI-aims is compiled without scalapack support.
  Defaulting to 'lapack_fast' instead (serial solution, time will not improve with more CPUs).
  Will not use alltoall communication since running on < 1024 CPUs.
  Threshold for basis singularities not set.
  Default threshold for basis singularities:  0.1000E-04
  partition_type (choice of integration weights) for integrals was not specified.
  | Using a version of the partition function of Stratmann and coworkers ('stratmann_smoother').
  | At each grid point, the set of atoms used to build the partition table is smoothly restricted to
  | only those atoms whose free-atom density would be non-zero at that grid point.
  Partitioning for Hartree potential was not defined. Using partition_type for integrals.
  | Adjusted default value of keyword multip_moments_threshold to:       0.10000000E-11
  | This value may affect high angular momentum components of the Hartree potential in periodic systems.
  No q(lm)/r^(l+1) cutoff set for long-range Hartree potential.
  | Using default value of  0.100000E-09 .
  | Verify using the multipole_threshold keyword.
  Defaulting to new monopole extrapolation.
  Density update method: automatic selection selected.
------------------------------------------------------------


------------------------------------------------------------
          Reading geometry description geometry.in.
------------------------------------------------------------
 * Warning: Initial charge and total charge of the system are inconsistent.
 * Selected charge in control.in:     1.0000* Sum of initial charges in geometry.in:     0.0000
  Input structure read successfully.
  The structure contains        2 atoms,  and a total of         15.000 electrons.

  Input geometry:
  | No unit cell requested.
  | Atomic structure:
  |       Atom                x [A]            y [A]            z [A]
  |    1: Species O              0.000000         0.000000         0.042359
  |    2: Species O              0.000000         0.002500         1.165141
  |

  | The smallest distance between any two atoms is         1.12278436 AA.
  |
  | The first atom of this pair is atom number                      1 .
  | The second atom of this pair is atom number                     2 .

  Number of empty states per atom not set in control.in - providing a guess from actual geometry.
  | Total number of empty states used during s.c.f. cycle:        6
  If you use a very high smearing, use empty_states (per atom!) in control.in to increase this value.

  Structure-dependent array size parameters: 
  | Maximum number of distinct radial functions  :       11
  | Maximum number of basis functions            :       78
  | Number of Kohn-Sham states (occupied + empty):       14
------------------------------------------------------------

------------------------------------------------------------
          Preparing all fixed parts of the calculation.
------------------------------------------------------------
  Determining machine precision:
    2.225073858507201E-308
  Setting up grids for atomic and cluster calculations.

  Creating wave function, potential, and density for free atoms.

  Species: O

  List of occupied orbitals and eigenvalues:
    n    l              occ      energy [Ha]    energy [eV]
    1    0           2.0000       -18.898576      -514.2564
    2    0           2.0000        -0.878795       -23.9132
    2    1           4.0000        -0.332075        -9.0362

  Creating fixed part of basis set: Ionic, confined, hydrogenic.
 
  O                    hydrogenic:
 
  List of hydrogenic basis orbitals: 
    n    l      effective z      eigenvalue [eV]  inner max. [A]     outer max. [A]     outer radius [A]   
    2    1         1.800000       -11.0118           1.178562           1.178562           5.432602
    3    2         7.600000       -87.3183           0.624125           0.624125           4.634338
    3    0         6.400000       -61.9210           0.061167           1.081902           5.110480
    4    3        11.600000      -114.4239           0.731631           0.731631           4.522403
    3    1         6.200000       -58.1114           0.255680           1.030270           5.110480
    3    2         5.600000       -47.4083           0.847233           0.847233           5.173339
    5    4        17.600000      -168.5800           0.749740           0.749740           4.051222
    1    0         0.750000        -7.6499           0.705284           0.705284           5.366593
 

  Adding cutoff potential to free-atom effective potential.
  Creating atomic-like basis functions for current effective potential.

  Species O                   :

  List of atomic basis orbitals and eigenvalues:
    n    l      energy [Ha]    energy [eV]    outer radius [A]
    1    0       -18.898576      -514.2564       1.415765
    2    0        -0.878795       -23.9132       5.048385
    2    1        -0.332075        -9.0362       5.301386

  Assembling full basis from fixed parts.
  | Species O :   atomic orbital   1 s accepted.
  | Species O :   atomic orbital   2 s accepted.
  | Species O :    hydro orbital   3 s accepted.
  | Species O :    hydro orbital   1 s accepted.
  | Species O :   atomic orbital   2 p accepted.
  | Species O :    hydro orbital   2 p accepted.
  | Species O :    hydro orbital   3 p accepted.
  | Species O :    hydro orbital   3 d accepted.
  | Species O :    hydro orbital   3 d accepted.
  | Species O :    hydro orbital   4 f accepted.
  | Species O :    hydro orbital   5 g accepted.
 
  Basis size parameters after reduction:
  | Total number of radial functions:       11
  | Total number of basis functions :       78
 
  Testing on-site integration grid accuracy.
  |  Species  Function  <phi|h_atom|phi> (log., in eV)  <phi|h_atom|phi> (rad., in eV)
           1        1               -514.2564144315               -514.2564099626
           1        2                -23.9132357102                -23.9132356433
           1        3                 17.5398579759                 17.5398338425
           1        4                 14.5207278950                 14.5207740449
           1        5                 -9.0362392718                 -9.0362394845
           1        6                  7.9056275927                  7.9056237490
           1        7                 33.4201658992                 33.4201612015
           1        8                 45.8231952720                 45.8231953152
           1        9                 52.1937595491                 52.1937593440
           1       10                 85.4062894308                 85.4062894578
           1       11                142.0975701139                142.0975701391

  Preparing densities etc. for the partition functions (integrals / Hartree potential).

  Preparations completed.
  max(cpu_time)          :      0.148 s.
  Wall clock time (cpu1) :      0.160 s.
------------------------------------------------------------

------------------------------------------------------------
          Begin self-consistency loop: Initialization.

          Date     :  20190722, Time     :  144532.072
------------------------------------------------------------

  Initializing index lists of integration centers etc. from given atomic structure:
  | Number of centers in hartree potential         :         2
  | Number of centers in hartree multipole         :         2
  | Number of centers in electron density summation:         2
  | Number of centers in basis integrals           :         2
  | Number of centers in integrals                 :         2
  | Number of centers in hamiltonian               :         2
  Partitioning the integration grid into batches with parallel hashing+maxmin method.
  | Number of batches:      843
  | Maximal batch size:     110
  | Minimal batch size:      49
  | Average batch size:      63.179
  | Standard deviation of batch sizes:      19.072

  Integration load balanced across     4 MPI tasks.
  Work distribution over tasks is as follows:
  Task     0 has      13291 integration points.
  Task     1 has      13315 integration points.
  Task     2 has      13343 integration points.
  Task     3 has      13311 integration points.
  Initializing partition tables, free-atom densities, potentials, etc. across the integration grid (initialize_grid_storage).
  | initialize_grid_storage: Actual outermost partition radius vs. multipole_radius_free
  | (-- VB: in principle, multipole_radius_free should be larger, hence this output)
  | Species        1: Confinement radius =              6.000000000000000 AA, multipole_radius_free =              6.064445521808699 AA.
  | Species        1: outer_partition_radius set to              6.064445521808699 AA .
  | Original list of interatomic distances with           2 x          2 entries is created.
  | Net number of integration points:    53260
  | of which are non-zero points    :    49990
  Obtaining max. number of non-zero basis functions in each batch (get_n_compute_maxes).
  | Maximal number of non-zero basis functions:       78 in task     0
  | Maximal number of non-zero basis functions:       78 in task     1
  | Maximal number of non-zero basis functions:       78 in task     2
  | Maximal number of non-zero basis functions:       78 in task     3
  Selecting the method for density update.
  Loop over occupied states selected for charge density update.
  Integrating Hamiltonian matrix: batch-based integration.
  Time summed over all CPUs for integration: real work        0.170 s, elapsed        0.171 s
  Integrating overlap matrix.
  Time summed over all CPUs for integration: real work        0.062 s, elapsed        0.062 s

  Reading cluster restart information from file restart
  Writing Kohn-Sham eigenvalues.

  State    Occupation    Eigenvalue [Ha]    Eigenvalue [eV]
      1       2.00000         -18.889873         -514.01961
      2       2.00000         -18.889654         -514.01363
      3       2.00000          -1.267293          -34.48480
      4       2.00000          -0.701439          -19.08712
      5       2.00000          -0.502548          -13.67503
      6       2.00000          -0.502548          -13.67503
      7       2.00000          -0.494805          -13.46433
      8       1.00000          -0.186832           -5.08397
      9       1.00000          -0.186832           -5.08397
     10       0.00000           0.098748            2.68707
     11       0.00000           0.105369            2.86723
     12       0.00000           0.133112            3.62217
     13       0.00000           0.000000            0.00000
     14       0.00000           0.000000            0.00000

  Highest occupied state (VBM) at     -5.08396624 eV
  | Occupation number:      1.00000094

  Lowest unoccupied state (CBM) at    -5.08396623 eV
  | Occupation number:      0.99999906

  Overall HOMO-LUMO gap:      0.00000002 eV.
*** get_ev_sum_p0 expected pure occ_numbers
*** sum(occ_numbers) =  1.6000000000208541E+01 instead of  1.5000000000000000E+01
  Calculating total energy contributions from superposition of free atom densities.
*** get_entropy_correction expected pure occ_numbers
*** sum(occ_numbers) =  1.6000000000208541E+01 instead of  1.5000000000000000E+01
*** get_penalty_energy expected pure occ_numbers
*** sum(occ_numbers) =  1.6000000000208541E+01 instead of  1.5000000000000000E+01

  Total energy components:
  | Sum of eigenvalues            :         -82.86998576 Ha       -2255.00704601 eV
  | XC energy correction          :         -16.82076999 Ha        -457.71643990 eV
  | XC potential correction       :          21.62723248 Ha         588.50693867 eV
  | Free-atom electrostatic energy:         -71.50995472 Ha       -1945.88487358 eV
  | Hartree energy correction     :           0.00000000 Ha           0.00000000 eV
  | Entropy correction            :          -0.00020734 Ha          -0.00564190 eV
  | ---------------------------
  | Total energy                  :        -149.57347800 Ha       -4070.10142083 eV
  | Total energy, T -> 0          :        -149.57368533 Ha       -4070.10706272 eV  <-- do not rely on this value for anything but (periodic) metals
  | Electronic free energy        :        -149.57389267 Ha       -4070.11270462 eV

  Derived energy quantities:
  | Kinetic energy                :         150.56069427 Ha        4096.96494223 eV
  | Electrostatic energy          :        -283.31340227 Ha       -7709.34992316 eV
  | Energy correction for multipole
  | error in Hartree potential    :           0.00000000 Ha           0.00000000 eV
  | Sum of eigenvalues per atom                           :       -1127.50352300 eV
  | Total energy (T->0) per atom                          :       -2035.05353136 eV  <-- do not rely on this value for anything but (periodic) metals
  | Electronic free energy per atom                       :       -2035.05635231 eV
  Initialize hartree_potential_storage
  Max. number of atoms included in rho_multipole:            2

  End scf initialization - timings             :  max(cpu_time)    wall_clock(cpu1)
  | Time for scf. initialization               :        0.126 s           0.126 s
  | Boundary condition initialization          :        0.002 s           0.001 s
  | Integration                                :        0.059 s           0.060 s
  | Solution of K.-S. eqns.                    :        0.002 s           0.001 s
  | Grid partitioning                          :        0.023 s           0.023 s
  | Preloading free-atom quantities on grid    :        0.017 s           0.021 s
  | Free-atom superposition energy             :        0.008 s           0.008 s
  | Total energy evaluation                    :        0.001 s           0.001 s
------------------------------------------------------------

------------------------------------------------------------
          Initial SCF-cycle to compute last known
          density from restart information.

  Date     :  20190722, Time     :  144532.198
------------------------------------------------------------
*** scf_solver:charge expected kweighted occ_numbers
*** sum(occ_numbers) =  1.6000000000208541E+01 instead of  1.5000000000000000E+01
  Evaluating new KS density.
*** update_density_and_forces_p2 expected kweighted occ_numbers
*** sum(occ_numbers) =  1.6000000000208541E+01 instead of  1.5000000000000000E+01
  Integration grid: deviation in total charge (<rho> - N_e) =   1.000000E+00

  Evaluating partitioned Hartree potential by multipole expansion.
  | Analytical far-field extrapolation by fixed multipoles:
  | Hartree multipole sum: apparent total charge =  -0.177415E-06
  Summing up the Hartree potential.
  Time summed over all CPUs for potential: real work        0.100 s, elapsed        0.104 s
  | RMS charge density error from multipole expansion :   0.646460E-03

  Integrating Hamiltonian matrix: batch-based integration.
  Time summed over all CPUs for integration: real work        0.169 s, elapsed        0.172 s

  Updating Kohn-Sham eigenvalues, eigenvectors, occupation numbers, and Fermi level.
  Solving generalized eigenproblem
  Updating Kohn-Sham eigenvalues and eigenfunctions.
  Transforming overlap matrix and checking for singularities.
  Overlap matrix is nonsingular:
  | Lowest eigenvalue:  0.185756E-03
  Solving real generalised eigenvalue problem by standard LAPACK (fast)
  Determining occupation numbers for Kohn-Sham eigenstates.
  | Chemical potential (Fermi level) in eV                 : -.50887373E+01
  | Error in electron count due to remaining E_F inaccuracy: 0.15516477E-10
  | Maximum occupation number of highest empty state:  0.00E+00

  Highest occupied state (VBM) at    -13.46433322 eV
  | Occupation number:      2.00000000

  Lowest unoccupied state (CBM) at    -5.08396845 eV
  | Occupation number:      0.50004574

  Overall HOMO-LUMO gap:      8.38036477 eV.

  Total energy components:
  | Sum of eigenvalues            :         -82.68315460 Ha       -2249.92311155 eV
  | XC energy correction          :         -16.91595022 Ha        -460.30642557 eV
  | XC potential correction       :          21.75097684 Ha         591.87419410 eV
  | Free-atom electrostatic energy:         -71.50995472 Ha       -1945.88487358 eV
  | Hartree energy correction     :          -0.65623136 Ha         -17.85696382 eV
  | Entropy correction            :          -0.00016515 Ha          -0.00449404 eV
  | ---------------------------
  | Total energy                  :        -150.01431406 Ha       -4082.09718042 eV
  | Total energy, T -> 0          :        -150.01447921 Ha       -4082.10167446 eV  <-- do not rely on this value for anything but (periodic) metals
  | Electronic free energy        :        -150.01464437 Ha       -4082.10616850 eV

  Derived energy quantities:
  | Kinetic energy                :         150.39445881 Ha        4092.44144527 eV
  | Electrostatic energy          :        -283.49282265 Ha       -7714.23220012 eV
  | Energy correction for multipole
  | error in Hartree potential    :          -0.00059256 Ha          -0.01612449 eV
  | Sum of eigenvalues per atom                           :       -1124.96155577 eV
  | Total energy (T->0) per atom                          :       -2041.05083723 eV  <-- do not rely on this value for anything but (periodic) metals
  | Electronic free energy per atom                       :       -2041.05308425 eV

  Self-consistency convergence accuracy:
  | Change of charge density      :  0.1358E+00
  | Change of sum of eigenvalues  :  0.5084E+01 eV
  | Change of total energy        : -0.1200E+02 eV

  End self-consistency iteration #     0       :  max(cpu_time)    wall_clock(cpu1)
  | Time for this iteration                    :        0.118 s           0.118 s
  | Charge density update                      :        0.033 s           0.032 s
  | Density mixing                             :        0.001 s           0.001 s
  | Hartree multipole update                   :        0.005 s           0.004 s
  | Hartree multipole summation                :        0.028 s           0.028 s
  | Integration                                :        0.044 s           0.043 s
  | Solution of K.-S. eqns.                    :        0.008 s           0.008 s
  | Total energy evaluation                    :        0.001 s           0.000 s
------------------------------------------------------------

------------------------------------------------------------
          Begin self-consistency iteration #    1

  Date     :  20190722, Time     :  144532.317
------------------------------------------------------------
  Evaluating new KS density.
  Integration grid: deviation in total charge (<rho> - N_e) =   1.567990E-11
  Pulay mixing of updated and previous charge densities.

  Evaluating partitioned Hartree potential by multipole expansion.
  | Analytical far-field extrapolation by fixed multipoles:
  | Hartree multipole sum: apparent total charge =   0.200000E+00
  Summing up the Hartree potential.
  Time summed over all CPUs for potential: real work        0.098 s, elapsed        0.099 s
  | RMS charge density error from multipole expansion :   0.568934E-03

  Integrating Hamiltonian matrix: batch-based integration.
  Time summed over all CPUs for integration: real work        0.166 s, elapsed        0.167 s

  Updating Kohn-Sham eigenvalues, eigenvectors, occupation numbers, and Fermi level.
  Solving generalized eigenproblem
  Updating Kohn-Sham eigenvalues and eigenfunctions.
  Solving real generalised eigenvalue problem by standard LAPACK (fast)
  Determining occupation numbers for Kohn-Sham eigenstates.
  | Chemical potential (Fermi level) in eV                 : -.81702211E+01
  | Error in electron count due to remaining E_F inaccuracy: 0.79207751E-11
  | Maximum occupation number of highest empty state:  0.00E+00

  Writing Kohn-Sham eigenvalues.

  State    Occupation    Eigenvalue [Ha]    Eigenvalue [eV]
      1       2.00000         -19.044718         -518.23316
      2       2.00000         -19.044500         -518.22721
      3       2.00000          -1.391441          -37.86304
      4       2.00000          -0.812974          -22.12216
      5       2.00000          -0.616512          -16.77616
      6       2.00000          -0.616512          -16.77615
      7       2.00000          -0.606202          -16.49561
      8       0.50041          -0.300075           -8.16546
      9       0.49959          -0.300075           -8.16545
     10       0.00000           0.042790            1.16439
     11       0.00000           0.050113            1.36365
     12       0.00000           0.078170            2.12711
     13       0.00000           0.078170            2.12712
     14       0.00000           0.157547            4.28708

  Highest occupied state (VBM) at    -16.49560636 eV
  | Occupation number:      2.00000000

  Lowest unoccupied state (CBM) at    -8.16545624 eV
  | Occupation number:      0.50040721

  Overall HOMO-LUMO gap:      8.33015012 eV.

  Total energy components:
  | Sum of eigenvalues            :         -84.56579677 Ha       -2301.15241136 eV
  | XC energy correction          :         -16.76353528 Ha        -456.15900420 eV
  | XC potential correction       :          21.55138843 Ha         586.44311705 eV
  | Free-atom electrostatic energy:         -71.50995472 Ha       -1945.88487358 eV
  | Hartree energy correction     :           1.36996801 Ha          37.27872627 eV
  | Entropy correction            :          -0.00016515 Ha          -0.00449404 eV
  | ---------------------------
  | Total energy                  :        -149.91793034 Ha       -4079.47444582 eV
  | Total energy, T -> 0          :        -149.91809549 Ha       -4079.47893986 eV  <-- do not rely on this value for anything but (periodic) metals
  | Electronic free energy        :        -149.91826064 Ha       -4079.48343390 eV

  Derived energy quantities:
  | Kinetic energy                :         149.84166543 Ha        4077.39917211 eV
  | Electrostatic energy          :        -282.99606048 Ha       -7700.71461374 eV
  | Energy correction for multipole
  | error in Hartree potential    :          -0.00047716 Ha          -0.01298415 eV
  | Sum of eigenvalues per atom                           :       -1150.57620568 eV
  | Total energy (T->0) per atom                          :       -2039.73946993 eV  <-- do not rely on this value for anything but (periodic) metals
  | Electronic free energy per atom                       :       -2039.74171695 eV

  Self-consistency convergence accuracy:
  | Change of charge density      :  0.2168E+00
  | Change of sum of eigenvalues  : -0.5123E+02 eV
  | Change of total energy        :  0.2623E+01 eV

  End self-consistency iteration #     1       :  max(cpu_time)    wall_clock(cpu1)
  | Time for this iteration                    :        0.106 s           0.106 s
  | Charge density update                      :        0.030 s           0.030 s
  | Density mixing                             :        0.001 s           0.001 s
  | Hartree multipole update                   :        0.004 s           0.004 s
  | Hartree multipole summation                :        0.027 s           0.026 s
  | Integration                                :        0.042 s           0.042 s
  | Solution of K.-S. eqns.                    :        0.001 s           0.001 s
  | Total energy evaluation                    :        0.000 s           0.001 s
------------------------------------------------------------

------------------------------------------------------------
          Begin self-consistency iteration #    2

  Date     :  20190722, Time     :  144532.424
------------------------------------------------------------
  Evaluating new KS density.
  Integration grid: deviation in total charge (<rho> - N_e) =   7.865708E-12
  Pulay mixing of updated and previous charge densities.

  Evaluating partitioned Hartree potential by multipole expansion.
  | Analytical far-field extrapolation by fixed multipoles:
  | Hartree multipole sum: apparent total charge =   0.551827E+00
  Summing up the Hartree potential.
  Time summed over all CPUs for potential: real work        0.096 s, elapsed        0.097 s
  | RMS charge density error from multipole expansion :   0.499239E-03

  Integrating Hamiltonian matrix: batch-based integration.
  Time summed over all CPUs for integration: real work        0.165 s, elapsed        0.166 s

  Updating Kohn-Sham eigenvalues, eigenvectors, occupation numbers, and Fermi level.
  Solving generalized eigenproblem
  Updating Kohn-Sham eigenvalues and eigenfunctions.
  Solving real generalised eigenvalue problem by standard LAPACK (fast)
  Determining occupation numbers for Kohn-Sham eigenstates.
  | Chemical potential (Fermi level) in eV                 : -.13092144E+02
  | Error in electron count due to remaining E_F inaccuracy: -.93969277E-12
  | Maximum occupation number of highest empty state:  0.00E+00

  Highest occupied state (VBM) at    -21.31585166 eV
  | Occupation number:      2.00000000

  Lowest unoccupied state (CBM) at   -13.08746838 eV
  | Occupation number:      0.50845641

  Overall HOMO-LUMO gap:      8.22838328 eV.

  Total energy components:
  | Sum of eigenvalues            :         -87.47618183 Ha       -2380.34801835 eV
  | XC energy correction          :         -16.54916600 Ha        -450.32571909 eV
  | XC potential correction       :          21.27064169 Ha         578.80360953 eV
  | Free-atom electrostatic energy:         -71.50995472 Ha       -1945.88487358 eV
  | Hartree energy correction     :           4.43982305 Ha         120.81373208 eV
  | Entropy correction            :          -0.00016514 Ha          -0.00449364 eV
  | ---------------------------
  | Total energy                  :        -149.82483781 Ha       -4076.94126940 eV
  | Total energy, T -> 0          :        -149.82500295 Ha       -4076.94576305 eV  <-- do not rely on this value for anything but (periodic) metals
  | Electronic free energy        :        -149.82516809 Ha       -4076.95025669 eV

  Derived energy quantities:
  | Kinetic energy                :         149.14690078 Ha        4058.49366408 eV
  | Electrostatic energy          :        -282.42257260 Ha       -7685.10921439 eV
  | Energy correction for multipole
  | error in Hartree potential    :          -0.00037145 Ha          -0.01010755 eV
  | Sum of eigenvalues per atom                           :       -1190.17400917 eV
  | Total energy (T->0) per atom                          :       -2038.47288152 eV  <-- do not rely on this value for anything but (periodic) metals
  | Electronic free energy per atom                       :       -2038.47512834 eV

  Self-consistency convergence accuracy:
  | Change of charge density      :  0.1326E+00
  | Change of sum of eigenvalues  : -0.7920E+02 eV
  | Change of total energy        :  0.2533E+01 eV

  End self-consistency iteration #     2       :  max(cpu_time)    wall_clock(cpu1)
  | Time for this iteration                    :        0.105 s           0.105 s
  | Charge density update                      :        0.030 s           0.029 s
  | Density mixing                             :        0.001 s           0.002 s
  | Hartree multipole update                   :        0.005 s           0.004 s
  | Hartree multipole summation                :        0.026 s           0.026 s
  | Integration                                :        0.042 s           0.042 s
  | Solution of K.-S. eqns.                    :        0.001 s           0.001 s
  | Total energy evaluation                    :        0.000 s           0.001 s
------------------------------------------------------------

------------------------------------------------------------
          Begin self-consistency iteration #    3

  Date     :  20190722, Time     :  144532.530
------------------------------------------------------------
  Evaluating new KS density.
  Integration grid: deviation in total charge (<rho> - N_e) =  -8.881784E-13
  Pulay mixing of updated and previous charge densities.

  Evaluating partitioned Hartree potential by multipole expansion.
  | Analytical far-field extrapolation by fixed multipoles:
  | Hartree multipole sum: apparent total charge =   0.100060E+01
  Summing up the Hartree potential.
  Time summed over all CPUs for potential: real work        0.097 s, elapsed        0.098 s
  | RMS charge density error from multipole expansion :   0.483218E-03

  Integrating Hamiltonian matrix: batch-based integration.
  Time summed over all CPUs for integration: real work        0.166 s, elapsed        0.166 s

  Updating Kohn-Sham eigenvalues, eigenvectors, occupation numbers, and Fermi level.
  Solving generalized eigenproblem
  Updating Kohn-Sham eigenvalues and eigenfunctions.
  Solving real generalised eigenvalue problem by standard LAPACK (fast)
  Determining occupation numbers for Kohn-Sham eigenstates.
  | Chemical potential (Fermi level) in eV                 : -.17803054E+02
  | Error in electron count due to remaining E_F inaccuracy: 0.10658141E-13
  | Maximum occupation number of highest empty state:  0.00E+00

  Highest occupied state (VBM) at    -25.95728773 eV
  | Occupation number:      2.00000000

  Lowest unoccupied state (CBM) at   -17.80184257 eV
  | Occupation number:      0.86401890

  Overall HOMO-LUMO gap:      8.15544516 eV.

  Total energy components:
  | Sum of eigenvalues            :         -90.03809361 Ha       -2450.06118475 eV
  | XC energy correction          :         -16.42414108 Ha        -446.92361807 eV
  | XC potential correction       :          21.10680409 Ha         574.34536160 eV
  | Free-atom electrostatic energy:         -71.50995472 Ha       -1945.88487358 eV
  | Hartree energy correction     :           7.07176390 Ha         192.43248665 eV
  | Entropy correction            :          -0.00013627 Ha          -0.00370822 eV
  | ---------------------------
  | Total energy                  :        -149.79362142 Ha       -4076.09182815 eV
  | Total energy, T -> 0          :        -149.79375770 Ha       -4076.09553637 eV  <-- do not rely on this value for anything but (periodic) metals
  | Electronic free energy        :        -149.79389397 Ha       -4076.09924459 eV

  Derived energy quantities:
  | Kinetic energy                :         149.27072197 Ha        4061.86301004 eV
  | Electrostatic energy          :        -282.64020231 Ha       -7691.03122012 eV
  | Energy correction for multipole
  | error in Hartree potential    :          -0.00051923 Ha          -0.01412902 eV
  | Sum of eigenvalues per atom                           :       -1225.03059237 eV
  | Total energy (T->0) per atom                          :       -2038.04776819 eV  <-- do not rely on this value for anything but (periodic) metals
  | Electronic free energy per atom                       :       -2038.04962230 eV

  Self-consistency convergence accuracy:
  | Change of charge density      :  0.5897E-01
  | Change of sum of eigenvalues  : -0.6971E+02 eV
  | Change of total energy        :  0.8494E+00 eV

  End self-consistency iteration #     3       :  max(cpu_time)    wall_clock(cpu1)
  | Time for this iteration                    :        0.105 s           0.105 s
  | Charge density update                      :        0.030 s           0.030 s
  | Density mixing                             :        0.002 s           0.002 s
  | Hartree multipole update                   :        0.004 s           0.003 s
  | Hartree multipole summation                :        0.025 s           0.026 s
  | Integration                                :        0.042 s           0.042 s
  | Solution of K.-S. eqns.                    :        0.001 s           0.001 s
  | Total energy evaluation                    :        0.000 s           0.001 s
------------------------------------------------------------

------------------------------------------------------------
          Begin self-consistency iteration #    4

  Date     :  20190722, Time     :  144532.636
------------------------------------------------------------
  Evaluating new KS density.
  Integration grid: deviation in total charge (<rho> - N_e) =   1.421085E-14
  Pulay mixing of updated and previous charge densities.

  Evaluating partitioned Hartree potential by multipole expansion.
  | Analytical far-field extrapolation by fixed multipoles:
  | Hartree multipole sum: apparent total charge =   0.102346E+01
  Summing up the Hartree potential.
  Time summed over all CPUs for potential: real work        0.096 s, elapsed        0.097 s
  | RMS charge density error from multipole expansion :   0.485010E-03

  Integrating Hamiltonian matrix: batch-based integration.
  Time summed over all CPUs for integration: real work        0.166 s, elapsed        0.167 s

  Updating Kohn-Sham eigenvalues, eigenvectors, occupation numbers, and Fermi level.
  Solving generalized eigenproblem
  Updating Kohn-Sham eigenvalues and eigenfunctions.
  Solving real generalised eigenvalue problem by standard LAPACK (fast)
  Determining occupation numbers for Kohn-Sham eigenstates.
  | Chemical potential (Fermi level) in eV                 : -.18010166E+02
  | Error in electron count due to remaining E_F inaccuracy: 0.24868996E-13
  | Maximum occupation number of highest empty state:  0.00E+00

  Highest occupied state (VBM) at    -26.16341022 eV
  | Occupation number:      2.00000000

  Lowest unoccupied state (CBM) at   -18.00541506 eV
  | Occupation number:      0.50162718

  Overall HOMO-LUMO gap:      8.15799517 eV.

  Total energy components:
  | Sum of eigenvalues            :         -90.14606904 Ha       -2452.99934575 eV
  | XC energy correction          :         -16.42076819 Ha        -446.83183700 eV
  | XC potential correction       :          21.10239356 Ha         574.22534512 eV
  | Free-atom electrostatic energy:         -71.50995472 Ha       -1945.88487358 eV
  | Hartree energy correction     :           7.18075023 Ha         195.39815547 eV
  | Entropy correction            :          -0.00016515 Ha          -0.00449402 eV
  | ---------------------------
  | Total energy                  :        -149.79364816 Ha       -4076.09255574 eV
  | Total energy, T -> 0          :        -149.79381331 Ha       -4076.09704976 eV  <-- do not rely on this value for anything but (periodic) metals
  | Electronic free energy        :        -149.79397846 Ha       -4076.10154379 eV

  Derived energy quantities:
  | Kinetic energy                :         149.29533147 Ha        4062.53266876 eV
  | Electrostatic energy          :        -282.66821144 Ha       -7691.79338750 eV
  | Energy correction for multipole
  | error in Hartree potential    :          -0.00053154 Ha          -0.01446403 eV
  | Sum of eigenvalues per atom                           :       -1226.49967287 eV
  | Total energy (T->0) per atom                          :       -2038.04852488 eV  <-- do not rely on this value for anything but (periodic) metals
  | Electronic free energy per atom                       :       -2038.05077189 eV

  Self-consistency convergence accuracy:
  | Change of charge density      :  0.1286E+00
  | Change of sum of eigenvalues  : -0.2938E+01 eV
  | Change of total energy        : -0.7276E-03 eV

  End self-consistency iteration #     4       :  max(cpu_time)    wall_clock(cpu1)
  | Time for this iteration                    :        0.105 s           0.105 s
  | Charge density update                      :        0.030 s           0.030 s
  | Density mixing                             :        0.002 s           0.002 s
  | Hartree multipole update                   :        0.004 s           0.003 s
  | Hartree multipole summation                :        0.025 s           0.025 s
  | Integration                                :        0.043 s           0.043 s
  | Solution of K.-S. eqns.                    :        0.001 s           0.001 s
  | Total energy evaluation                    :        0.000 s           0.001 s
------------------------------------------------------------

------------------------------------------------------------
          Begin self-consistency iteration #    5

  Date     :  20190722, Time     :  144532.742
------------------------------------------------------------
  Evaluating new KS density.
  Integration grid: deviation in total charge (<rho> - N_e) =   7.815970E-14
  Pulay mixing of updated and previous charge densities.

  Evaluating partitioned Hartree potential by multipole expansion.
  | Analytical far-field extrapolation by fixed multipoles:
  | Hartree multipole sum: apparent total charge =   0.993556E+00
  Summing up the Hartree potential.
  Time summed over all CPUs for potential: real work        0.096 s, elapsed        0.098 s
  | RMS charge density error from multipole expansion :   0.482393E-03

  Integrating Hamiltonian matrix: batch-based integration.
  Time summed over all CPUs for integration: real work        0.166 s, elapsed        0.168 s

  Updating Kohn-Sham eigenvalues, eigenvectors, occupation numbers, and Fermi level.
  Solving generalized eigenproblem
  Updating Kohn-Sham eigenvalues and eigenfunctions.
  Solving real generalised eigenvalue problem by standard LAPACK (fast)
  Determining occupation numbers for Kohn-Sham eigenstates.
  | Chemical potential (Fermi level) in eV                 : -.17483570E+02
  | Error in electron count due to remaining E_F inaccuracy: -.50444982E-10
  | Maximum occupation number of highest empty state:  0.00E+00

  Highest occupied state (VBM) at    -25.65094646 eV
  | Occupation number:      2.00000000

  Lowest unoccupied state (CBM) at   -17.47881586 eV
  | Occupation number:      0.50135848

  Overall HOMO-LUMO gap:      8.17213060 eV.

  Total energy components:
  | Sum of eigenvalues            :         -89.82537101 Ha       -2444.27270843 eV
  | XC energy correction          :         -16.44769139 Ha        -447.56445461 eV
  | XC potential correction       :          21.13765336 Ha         575.18481291 eV
  | Free-atom electrostatic energy:         -71.50995472 Ha       -1945.88487358 eV
  | Hartree energy correction     :           6.85225952 Ha         186.45946846 eV
  | Entropy correction            :          -0.00016515 Ha          -0.00449403 eV
  | ---------------------------
  | Total energy                  :        -149.79310425 Ha       -4076.07775525 eV
  | Total energy, T -> 0          :        -149.79326940 Ha       -4076.08224928 eV  <-- do not rely on this value for anything but (periodic) metals
  | Electronic free energy        :        -149.79343456 Ha       -4076.08674331 eV

  Derived energy quantities:
  | Kinetic energy                :         149.43642822 Ha        4066.37210653 eV
  | Electrostatic energy          :        -282.78184108 Ha       -7694.88540717 eV
  | Energy correction for multipole
  | error in Hartree potential    :          -0.00055365 Ha          -0.01506546 eV
  | Sum of eigenvalues per atom                           :       -1222.13635422 eV
  | Total energy (T->0) per atom                          :       -2038.04112464 eV  <-- do not rely on this value for anything but (periodic) metals
  | Electronic free energy per atom                       :       -2038.04337165 eV

  Self-consistency convergence accuracy:
  | Change of charge density      :  0.2180E-01
  | Change of sum of eigenvalues  :  0.8727E+01 eV
  | Change of total energy        :  0.1480E-01 eV

  End self-consistency iteration #     5       :  max(cpu_time)    wall_clock(cpu1)
  | Time for this iteration                    :        0.105 s           0.105 s
  | Charge density update                      :        0.030 s           0.030 s
  | Density mixing                             :        0.002 s           0.002 s
  | Hartree multipole update                   :        0.004 s           0.003 s
  | Hartree multipole summation                :        0.025 s           0.025 s
  | Integration                                :        0.042 s           0.042 s
  | Solution of K.-S. eqns.                    :        0.001 s           0.001 s
  | Total energy evaluation                    :        0.000 s           0.001 s
------------------------------------------------------------

------------------------------------------------------------
          Begin self-consistency iteration #    6

  Date     :  20190722, Time     :  144532.849
------------------------------------------------------------
  Evaluating new KS density.
  Integration grid: deviation in total charge (<rho> - N_e) =  -5.045209E-11
  Pulay mixing of updated and previous charge densities.

  Evaluating partitioned Hartree potential by multipole expansion.
  | Analytical far-field extrapolation by fixed multipoles:
  | Hartree multipole sum: apparent total charge =   0.999212E+00
  Summing up the Hartree potential.
  Time summed over all CPUs for potential: real work        0.097 s, elapsed        0.098 s
  | RMS charge density error from multipole expansion :   0.493712E-03

  Integrating Hamiltonian matrix: batch-based integration.
  Time summed over all CPUs for integration: real work        0.166 s, elapsed        0.167 s

  Updating Kohn-Sham eigenvalues, eigenvectors, occupation numbers, and Fermi level.
  Solving generalized eigenproblem
  Updating Kohn-Sham eigenvalues and eigenfunctions.
  Solving real generalised eigenvalue problem by standard LAPACK (fast)
  Determining occupation numbers for Kohn-Sham eigenstates.
  | Chemical potential (Fermi level) in eV                 : -.17447448E+02
  | Error in electron count due to remaining E_F inaccuracy: 0.65725203E-13
  | Maximum occupation number of highest empty state:  0.00E+00

  Highest occupied state (VBM) at    -25.61428304 eV
  | Occupation number:      2.00000000

  Lowest unoccupied state (CBM) at   -17.44270422 eV
  | Occupation number:      0.50226895

  Overall HOMO-LUMO gap:      8.17157882 eV.

  Total energy components:
  | Sum of eigenvalues            :         -89.80039633 Ha       -2443.59311274 eV
  | XC energy correction          :         -16.45305185 Ha        -447.71032005 eV
  | XC potential correction       :          21.14478096 Ha         575.37876486 eV
  | Free-atom electrostatic energy:         -71.50995472 Ha       -1945.88487358 eV
  | Hartree energy correction     :           6.82554052 Ha         185.73240739 eV
  | Entropy correction            :          -0.00016515 Ha          -0.00449401 eV
  | ---------------------------
  | Total energy                  :        -149.79308143 Ha       -4076.07713412 eV
  | Total energy, T -> 0          :        -149.79324658 Ha       -4076.08162813 eV  <-- do not rely on this value for anything but (periodic) metals
  | Electronic free energy        :        -149.79341173 Ha       -4076.08612215 eV

  Derived energy quantities:
  | Kinetic energy                :         149.45592965 Ha        4066.90276738 eV
  | Electrostatic energy          :        -282.79595922 Ha       -7695.26958146 eV
  | Energy correction for multipole
  | error in Hartree potential    :          -0.00054546 Ha          -0.01484268 eV
  | Sum of eigenvalues per atom                           :       -1221.79655637 eV
  | Total energy (T->0) per atom                          :       -2038.04081407 eV  <-- do not rely on this value for anything but (periodic) metals
  | Electronic free energy per atom                       :       -2038.04306107 eV

  Self-consistency convergence accuracy:
  | Change of charge density      :  0.6619E-02
  | Change of sum of eigenvalues  :  0.6796E+00 eV
  | Change of total energy        :  0.6211E-03 eV

  End self-consistency iteration #     6       :  max(cpu_time)    wall_clock(cpu1)
  | Time for this iteration                    :        0.105 s           0.105 s
  | Charge density update                      :        0.029 s           0.029 s
  | Density mixing                             :        0.002 s           0.003 s
  | Hartree multipole update                   :        0.004 s           0.004 s
  | Hartree multipole summation                :        0.026 s           0.025 s
  | Integration                                :        0.042 s           0.042 s
  | Solution of K.-S. eqns.                    :        0.001 s           0.001 s
  | Total energy evaluation                    :        0.001 s           0.000 s
------------------------------------------------------------

------------------------------------------------------------
          Begin self-consistency iteration #    7

  Date     :  20190722, Time     :  144532.956
------------------------------------------------------------
  Evaluating new KS density.
  Integration grid: deviation in total charge (<rho> - N_e) =  -1.456613E-13
  Pulay mixing of updated and previous charge densities.

  Evaluating partitioned Hartree potential by multipole expansion.
  | Analytical far-field extrapolation by fixed multipoles:
  | Hartree multipole sum: apparent total charge =   0.999658E+00
  Summing up the Hartree potential.
  Time summed over all CPUs for potential: real work        0.097 s, elapsed        0.098 s
  | RMS charge density error from multipole expansion :   0.494373E-03

  Integrating Hamiltonian matrix: batch-based integration.
  Time summed over all CPUs for integration: real work        0.166 s, elapsed        0.167 s

  Updating Kohn-Sham eigenvalues, eigenvectors, occupation numbers, and Fermi level.
  Solving generalized eigenproblem
  Updating Kohn-Sham eigenvalues and eigenfunctions.
  Solving real generalised eigenvalue problem by standard LAPACK (fast)
  Determining occupation numbers for Kohn-Sham eigenstates.
  | Chemical potential (Fermi level) in eV                 : -.17449377E+02
  | Error in electron count due to remaining E_F inaccuracy: -.20737012E-09
  | Maximum occupation number of highest empty state:  0.00E+00

  Highest occupied state (VBM) at    -25.61759059 eV
  | Occupation number:      2.00000000

  Lowest unoccupied state (CBM) at   -17.44465444 eV
  | Occupation number:      0.50419596

  Overall HOMO-LUMO gap:      8.17293615 eV.

  Total energy components:
  | Sum of eigenvalues            :         -89.80171281 Ha       -2443.62893615 eV
  | XC energy correction          :         -16.45294693 Ha        -447.70746499 eV
  | XC potential correction       :          21.14465464 Ha         575.37532757 eV
  | Free-atom electrostatic energy:         -71.50995472 Ha       -1945.88487358 eV
  | Hartree energy correction     :           6.82687851 Ha         185.76881620 eV
  | Entropy correction            :          -0.00016515 Ha          -0.00449394 eV
  | ---------------------------
  | Total energy                  :        -149.79308131 Ha       -4076.07713096 eV
  | Total energy, T -> 0          :        -149.79324646 Ha       -4076.08162490 eV  <-- do not rely on this value for anything but (periodic) metals
  | Electronic free energy        :        -149.79341161 Ha       -4076.08611884 eV

  Derived energy quantities:
  | Kinetic energy                :         149.45342828 Ha        4066.83470188 eV
  | Electrostatic energy          :        -282.79356267 Ha       -7695.20436784 eV
  | Energy correction for multipole
  | error in Hartree potential    :          -0.00054401 Ha          -0.01480332 eV
  | Sum of eigenvalues per atom                           :       -1221.81446808 eV
  | Total energy (T->0) per atom                          :       -2038.04081245 eV  <-- do not rely on this value for anything but (periodic) metals
  | Electronic free energy per atom                       :       -2038.04305942 eV

  Self-consistency convergence accuracy:
  | Change of charge density      :  0.1004E-02
  | Change of sum of eigenvalues  : -0.3582E-01 eV
  | Change of total energy        :  0.3168E-05 eV

  End self-consistency iteration #     7       :  max(cpu_time)    wall_clock(cpu1)
  | Time for this iteration                    :        0.106 s           0.105 s
  | Charge density update                      :        0.030 s           0.029 s
  | Density mixing                             :        0.003 s           0.003 s
  | Hartree multipole update                   :        0.004 s           0.003 s
  | Hartree multipole summation                :        0.026 s           0.026 s
  | Integration                                :        0.043 s           0.042 s
  | Solution of K.-S. eqns.                    :        0.001 s           0.001 s
  | Total energy evaluation                    :        0.001 s           0.001 s
------------------------------------------------------------

------------------------------------------------------------
          Begin self-consistency iteration #    8

  Date     :  20190722, Time     :  144533.062
------------------------------------------------------------
  Evaluating new KS density.
  Integration grid: deviation in total charge (<rho> - N_e) =  -2.076135E-10
  Pulay mixing of updated and previous charge densities.

  Evaluating partitioned Hartree potential by multipole expansion.
  | Analytical far-field extrapolation by fixed multipoles:
  | Hartree multipole sum: apparent total charge =   0.999907E+00
  Summing up the Hartree potential.
  Time summed over all CPUs for potential: real work        0.097 s, elapsed        0.098 s
  | RMS charge density error from multipole expansion :   0.494913E-03

  Integrating Hamiltonian matrix: batch-based integration.
  Time summed over all CPUs for integration: real work        0.166 s, elapsed        0.167 s

  Updating Kohn-Sham eigenvalues, eigenvectors, occupation numbers, and Fermi level.
  Solving generalized eigenproblem
  Updating Kohn-Sham eigenvalues and eigenfunctions.
  Solving real generalised eigenvalue problem by standard LAPACK (fast)
  Determining occupation numbers for Kohn-Sham eigenstates.
  | Chemical potential (Fermi level) in eV                 : -.17445718E+02
  | Error in electron count due to remaining E_F inaccuracy: 0.78159701E-13
  | Maximum occupation number of highest empty state:  0.00E+00

  Highest occupied state (VBM) at    -25.61441253 eV
  | Occupation number:      2.00000000

  Lowest unoccupied state (CBM) at   -17.44098600 eV
  | Occupation number:      0.50338271

  Overall HOMO-LUMO gap:      8.17342653 eV.

  Total energy components:
  | Sum of eigenvalues            :         -89.79922457 Ha       -2443.56122748 eV
  | XC energy correction          :         -16.45332347 Ha        -447.71771135 eV
  | XC potential correction       :          21.14515444 Ha         575.38892777 eV
  | Free-atom electrostatic energy:         -71.50995472 Ha       -1945.88487358 eV
  | Hartree energy correction     :           6.82426724 Ha         185.69775987 eV
  | Entropy correction            :          -0.00016515 Ha          -0.00449398 eV
  | ---------------------------
  | Total energy                  :        -149.79308108 Ha       -4076.07712478 eV
  | Total energy, T -> 0          :        -149.79324623 Ha       -4076.08161876 eV  <-- do not rely on this value for anything but (periodic) metals
  | Electronic free energy        :        -149.79341138 Ha       -4076.08611273 eV

  Derived energy quantities:
  | Kinetic energy                :         149.45503371 Ha        4066.87838777 eV
  | Electrostatic energy          :        -282.79479132 Ha       -7695.23780119 eV
  | Energy correction for multipole
  | error in Hartree potential    :          -0.00054370 Ha          -0.01479491 eV
  | Sum of eigenvalues per atom                           :       -1221.78061374 eV
  | Total energy (T->0) per atom                          :       -2038.04080938 eV  <-- do not rely on this value for anything but (periodic) metals
  | Electronic free energy per atom                       :       -2038.04305637 eV

  Self-consistency convergence accuracy:
  | Change of charge density      :  0.1559E-02
  | Change of sum of eigenvalues  :  0.6771E-01 eV
  | Change of total energy        :  0.6174E-05 eV

  End self-consistency iteration #     8       :  max(cpu_time)    wall_clock(cpu1)
  | Time for this iteration                    :        0.106 s           0.106 s
  | Charge density update                      :        0.030 s           0.030 s
  | Density mixing                             :        0.003 s           0.003 s
  | Hartree multipole update                   :        0.004 s           0.003 s
  | Hartree multipole summation                :        0.026 s           0.026 s
  | Integration                                :        0.042 s           0.042 s
  | Solution of K.-S. eqns.                    :        0.001 s           0.001 s
  | Total energy evaluation                    :        0.000 s           0.001 s
------------------------------------------------------------

------------------------------------------------------------
          Begin self-consistency iteration #    9

  Date     :  20190722, Time     :  144533.169
------------------------------------------------------------
  Evaluating new KS density.
  Integration grid: deviation in total charge (<rho> - N_e) =  -7.105427E-15
  Pulay mixing of updated and previous charge densities.

  Evaluating partitioned Hartree potential by multipole expansion.
  | Analytical far-field extrapolation by fixed multipoles:
  | Hartree multipole sum: apparent total charge =   0.100005E+01
  Summing up the Hartree potential.
  Time summed over all CPUs for potential: real work        0.097 s, elapsed        0.098 s
  | RMS charge density error from multipole expansion :   0.495243E-03

  Integrating Hamiltonian matrix: batch-based integration.
  Time summed over all CPUs for integration: real work        0.165 s, elapsed        0.166 s

  Updating Kohn-Sham eigenvalues, eigenvectors, occupation numbers, and Fermi level.
  Solving generalized eigenproblem
  Updating Kohn-Sham eigenvalues and eigenfunctions.
  Solving real generalised eigenvalue problem by standard LAPACK (fast)
  Determining occupation numbers for Kohn-Sham eigenstates.
  | Chemical potential (Fermi level) in eV                 : -.17443358E+02
  | Error in electron count due to remaining E_F inaccuracy: 0.22382096E-12
  | Maximum occupation number of highest empty state:  0.00E+00

  Highest occupied state (VBM) at    -25.61233242 eV
  | Occupation number:      2.00000000

  Lowest unoccupied state (CBM) at   -17.43860000 eV
  | Occupation number:      0.50105380

  Overall HOMO-LUMO gap:      8.17373242 eV.

  Total energy components:
  | Sum of eigenvalues            :         -89.79762285 Ha       -2443.51764260 eV
  | XC energy correction          :         -16.45356319 Ha        -447.72423442 eV
  | XC potential correction       :          21.14547241 Ha         575.39758018 eV
  | Free-atom electrostatic energy:         -71.50995472 Ha       -1945.88487358 eV
  | Hartree energy correction     :           6.82258734 Ha         185.65204738 eV
  | Entropy correction            :          -0.00016515 Ha          -0.00449403 eV
  | ---------------------------
  | Total energy                  :        -149.79308102 Ha       -4076.07712304 eV
  | Total energy, T -> 0          :        -149.79324617 Ha       -4076.08161708 eV  <-- do not rely on this value for anything but (periodic) metals
  | Electronic free energy        :        -149.79341132 Ha       -4076.08611111 eV

  Derived energy quantities:
  | Kinetic energy                :         149.45608559 Ha        4066.90701079 eV
  | Electrostatic energy          :        -282.79560341 Ha       -7695.25989941 eV
  | Energy correction for multipole
  | error in Hartree potential    :          -0.00054353 Ha          -0.01479020 eV
  | Sum of eigenvalues per atom                           :       -1221.75882130 eV
  | Total energy (T->0) per atom                          :       -2038.04080854 eV  <-- do not rely on this value for anything but (periodic) metals
  | Electronic free energy per atom                       :       -2038.04305556 eV

  Self-consistency convergence accuracy:
  | Change of charge density      :  0.1195E-02
  | Change of sum of eigenvalues  :  0.4358E-01 eV
  | Change of total energy        :  0.1737E-05 eV

  End self-consistency iteration #     9       :  max(cpu_time)    wall_clock(cpu1)
  | Time for this iteration                    :        0.106 s           0.106 s
  | Charge density update                      :        0.030 s           0.030 s
  | Density mixing                             :        0.003 s           0.003 s
  | Hartree multipole update                   :        0.005 s           0.004 s
  | Hartree multipole summation                :        0.025 s           0.025 s
  | Integration                                :        0.042 s           0.042 s
  | Solution of K.-S. eqns.                    :        0.001 s           0.001 s
  | Total energy evaluation                    :        0.000 s           0.001 s
------------------------------------------------------------

------------------------------------------------------------
          Begin self-consistency iteration #   10

  Date     :  20190722, Time     :  144533.277
------------------------------------------------------------
  Evaluating new KS density.
  Integration grid: deviation in total charge (<rho> - N_e) =   8.348877E-14
  Pulay mixing of updated and previous charge densities.

  Evaluating partitioned Hartree potential by multipole expansion.
  | Analytical far-field extrapolation by fixed multipoles:
  | Hartree multipole sum: apparent total charge =   0.100004E+01
  Summing up the Hartree potential.
  Time summed over all CPUs for potential: real work        0.097 s, elapsed        0.098 s
  | RMS charge density error from multipole expansion :   0.495274E-03

  Integrating Hamiltonian matrix: batch-based integration.
  Time summed over all CPUs for integration: real work        0.165 s, elapsed        0.167 s

  Updating Kohn-Sham eigenvalues, eigenvectors, occupation numbers, and Fermi level.
  Solving generalized eigenproblem
  Updating Kohn-Sham eigenvalues and eigenfunctions.
  Solving real generalised eigenvalue problem by standard LAPACK (fast)
  Determining occupation numbers for Kohn-Sham eigenstates.
  | Chemical potential (Fermi level) in eV                 : -.17442686E+02
  | Error in electron count due to remaining E_F inaccuracy: 0.10302870E-12
  | Maximum occupation number of highest empty state:  0.00E+00

  Highest occupied state (VBM) at    -25.61166617 eV
  | Occupation number:      2.00000000

  Lowest unoccupied state (CBM) at   -17.43792536 eV
  | Occupation number:      0.50079955

  Overall HOMO-LUMO gap:      8.17374081 eV.

  Total energy components:
  | Sum of eigenvalues            :         -89.79721139 Ha       -2443.50644608 eV
  | XC energy correction          :         -16.45360665 Ha        -447.72541690 eV
  | XC potential correction       :          21.14552981 Ha         575.39914199 eV
  | Free-atom electrostatic energy:         -71.50995472 Ha       -1945.88487358 eV
  | Hartree energy correction     :           6.82216194 Ha         185.64047164 eV
  | Entropy correction            :          -0.00016515 Ha          -0.00449404 eV
  | ---------------------------
  | Total energy                  :        -149.79308101 Ha       -4076.07712293 eV
  | Total energy, T -> 0          :        -149.79324617 Ha       -4076.08161696 eV  <-- do not rely on this value for anything but (periodic) metals
  | Electronic free energy        :        -149.79341132 Ha       -4076.08611100 eV

  Derived energy quantities:
  | Kinetic energy                :         149.45626149 Ha        4066.91179726 eV
  | Electrostatic energy          :        -282.79573585 Ha       -7695.26350329 eV
  | Energy correction for multipole
  | error in Hartree potential    :          -0.00054350 Ha          -0.01478944 eV
  | Sum of eigenvalues per atom                           :       -1221.75322304 eV
  | Total energy (T->0) per atom                          :       -2038.04080848 eV  <-- do not rely on this value for anything but (periodic) metals
  | Electronic free energy per atom                       :       -2038.04305550 eV

  Self-consistency convergence accuracy:
  | Change of charge density      :  0.3701E-03
  | Change of sum of eigenvalues  :  0.1120E-01 eV
  | Change of total energy        :  0.1167E-06 eV

  End self-consistency iteration #    10       :  max(cpu_time)    wall_clock(cpu1)
  | Time for this iteration                    :        0.105 s           0.105 s
  | Charge density update                      :        0.030 s           0.029 s
  | Density mixing                             :        0.002 s           0.003 s
  | Hartree multipole update                   :        0.004 s           0.004 s
  | Hartree multipole summation                :        0.025 s           0.025 s
  | Integration                                :        0.042 s           0.042 s
  | Solution of K.-S. eqns.                    :        0.001 s           0.001 s
  | Total energy evaluation                    :        0.001 s           0.000 s
------------------------------------------------------------

------------------------------------------------------------
          Begin self-consistency iteration #   11

  Date     :  20190722, Time     :  144533.384
------------------------------------------------------------
  Evaluating new KS density.
  Integration grid: deviation in total charge (<rho> - N_e) =   2.700062E-13
  Pulay mixing of updated and previous charge densities.

  Evaluating partitioned Hartree potential by multipole expansion.
  | Analytical far-field extrapolation by fixed multipoles:
  | Hartree multipole sum: apparent total charge =   0.999993E+00
  Summing up the Hartree potential.
  Time summed over all CPUs for potential: real work        0.096 s, elapsed        0.097 s
  | RMS charge density error from multipole expansion :   0.495331E-03

  Integrating Hamiltonian matrix: batch-based integration.
  Time summed over all CPUs for integration: real work        0.166 s, elapsed        0.168 s

  Updating Kohn-Sham eigenvalues, eigenvectors, occupation numbers, and Fermi level.
  Solving generalized eigenproblem
  Updating Kohn-Sham eigenvalues and eigenfunctions.
  Solving real generalised eigenvalue problem by standard LAPACK (fast)
  Determining occupation numbers for Kohn-Sham eigenstates.
  | Chemical potential (Fermi level) in eV                 : -.17441277E+02
  | Error in electron count due to remaining E_F inaccuracy: 0.22559732E-12
  | Maximum occupation number of highest empty state:  0.00E+00

  Highest occupied state (VBM) at    -25.61026375 eV
  | Occupation number:      2.00000000

  Lowest unoccupied state (CBM) at   -17.43650801 eV
  | Occupation number:      0.50001829

  Overall HOMO-LUMO gap:      8.17375574 eV.

  Total energy components:
  | Sum of eigenvalues            :         -89.79636395 Ha       -2443.48338613 eV
  | XC energy correction          :         -16.45369102 Ha        -447.72771281 eV
  | XC potential correction       :          21.14564129 Ha         575.40217577 eV
  | Free-atom electrostatic energy:         -71.50995472 Ha       -1945.88487358 eV
  | Hartree energy correction     :           6.82128739 Ha         185.61667391 eV
  | Entropy correction            :          -0.00016515 Ha          -0.00449404 eV
  | ---------------------------
  | Total energy                  :        -149.79308101 Ha       -4076.07712284 eV
  | Total energy, T -> 0          :        -149.79324616 Ha       -4076.08161688 eV  <-- do not rely on this value for anything but (periodic) metals
  | Electronic free energy        :        -149.79341132 Ha       -4076.08611092 eV

  Derived energy quantities:
  | Kinetic energy                :         149.45656931 Ha        4066.92017358 eV
  | Electrostatic energy          :        -282.79595930 Ha       -7695.26958361 eV
  | Energy correction for multipole
  | error in Hartree potential    :          -0.00054343 Ha          -0.01478746 eV
  | Sum of eigenvalues per atom                           :       -1221.74169307 eV
  | Total energy (T->0) per atom                          :       -2038.04080844 eV  <-- do not rely on this value for anything but (periodic) metals
  | Electronic free energy per atom                       :       -2038.04305546 eV

  Self-consistency convergence accuracy:
  | Change of charge density      :  0.2786E-03
  | Change of sum of eigenvalues  :  0.2306E-01 eV
  | Change of total energy        :  0.8608E-07 eV

  End self-consistency iteration #    11       :  max(cpu_time)    wall_clock(cpu1)
  | Time for this iteration                    :        0.105 s           0.105 s
  | Charge density update                      :        0.029 s           0.029 s
  | Density mixing                             :        0.003 s           0.003 s
  | Hartree multipole update                   :        0.004 s           0.004 s
  | Hartree multipole summation                :        0.025 s           0.025 s
  | Integration                                :        0.042 s           0.042 s
  | Solution of K.-S. eqns.                    :        0.001 s           0.001 s
  | Total energy evaluation                    :        0.000 s           0.001 s
------------------------------------------------------------

------------------------------------------------------------
          Begin self-consistency iteration #   12

  Date     :  20190722, Time     :  144533.625
------------------------------------------------------------
  Evaluating new KS density.
  Integration grid: deviation in total charge (<rho> - N_e) =   1.811884E-13
  Pulay mixing of updated and previous charge densities.

  Evaluating partitioned Hartree potential by multipole expansion.
  | Analytical far-field extrapolation by fixed multipoles:
  | Hartree multipole sum: apparent total charge =   0.999994E+00
  Summing up the Hartree potential.
  Time summed over all CPUs for potential: real work        0.097 s, elapsed        0.099 s
  | RMS charge density error from multipole expansion :   0.495332E-03

  Integrating Hamiltonian matrix: batch-based integration.
  Time summed over all CPUs for integration: real work        0.169 s, elapsed        0.170 s

  Updating Kohn-Sham eigenvalues, eigenvectors, occupation numbers, and Fermi level.
  Solving generalized eigenproblem
  Updating Kohn-Sham eigenvalues and eigenfunctions.
  Solving real generalised eigenvalue problem by standard LAPACK (fast)
  Determining occupation numbers for Kohn-Sham eigenstates.
  | Chemical potential (Fermi level) in eV                 : -.17441268E+02
  | Error in electron count due to remaining E_F inaccuracy: -.21316282E-13
  | Maximum occupation number of highest empty state:  0.00E+00

  Highest occupied state (VBM) at    -25.61025555 eV
  | Occupation number:      2.00000000

  Lowest unoccupied state (CBM) at   -17.43649929 eV
  | Occupation number:      0.50002211

  Overall HOMO-LUMO gap:      8.17375626 eV.

  Total energy components:
  | Sum of eigenvalues            :         -89.79635822 Ha       -2443.48323026 eV
  | XC energy correction          :         -16.45369207 Ha        -447.72774135 eV
  | XC potential correction       :          21.14564269 Ha         575.40221379 eV
  | Free-atom electrostatic energy:         -71.50995472 Ha       -1945.88487358 eV
  | Hartree energy correction     :           6.82128131 Ha         185.61650856 eV
  | Entropy correction            :          -0.00016515 Ha          -0.00449404 eV
  | ---------------------------
  | Total energy                  :        -149.79308101 Ha       -4076.07712284 eV
  | Total energy, T -> 0          :        -149.79324616 Ha       -4076.08161688 eV  <-- do not rely on this value for anything but (periodic) metals
[...]
  | Total energy (T->0) per atom                          :       -2038.04080844 eV  <-- do not rely on this value for anything but (periodic) metals
  | Electronic free energy per atom                       :       -2038.04305546 eV

  Self-consistency convergence accuracy:
  | Change of charge density      :  0.6378E-05
  | Change of sum of eigenvalues  :  0.1559E-03 eV
  | Change of total energy        : -0.2227E-09 eV

  Electronic self-consistency reached - switching on the force computation.

  End self-consistency iteration #    12       :  max(cpu_time)    wall_clock(cpu1)
  | Time for this iteration                    :        0.116 s           0.118 s
  | Charge density & force component update    :        0.033 s           0.034 s
  | Density mixing                             :        0.005 s           0.005 s
  | Hartree multipole update                   :        0.005 s           0.004 s
  | Hartree multipole summation                :        0.025 s           0.026 s
  | Integration                                :        0.043 s           0.043 s
  | Solution of K.-S. eqns.                    :        0.004 s           0.004 s
  | Total energy evaluation                    :        0.001 s           0.001 s
------------------------------------------------------------

------------------------------------------------------------
          Begin self-consistency iteration #   13

  Date     :  20190722, Time     :  144533.746
------------------------------------------------------------
  Evaluating new KS density.
  Integration grid: deviation in total charge (<rho> - N_e) =   1.882938E-13
  Pulay mixing of updated and previous charge densities.

  Evaluating partitioned Hartree potential by multipole expansion.
  | Analytical far-field extrapolation by fixed multipoles:
  | Hartree multipole sum: apparent total charge =   0.999999E+00
  Summing up the Hartree potential.
  Time summed over all CPUs for potential: real work        0.255 s, elapsed        0.260 s
  | RMS charge density error from multipole expansion :   0.495332E-03

  Integrating Hamiltonian matrix: batch-based integration.
  Time summed over all CPUs for integration: real work        0.165 s, elapsed        0.166 s

  Updating Kohn-Sham eigenvalues, eigenvectors, occupation numbers, and Fermi level.
  Solving generalized eigenproblem
  Updating Kohn-Sham eigenvalues and eigenfunctions.
  Solving real generalised eigenvalue problem by standard LAPACK (fast)
  Determining occupation numbers for Kohn-Sham eigenstates.
  | Chemical potential (Fermi level) in eV                 : -.17441307E+02
  | Error in electron count due to remaining E_F inaccuracy: -.88817842E-14
  | Maximum occupation number of highest empty state:  0.00E+00

  Highest occupied state (VBM) at    -25.61029505 eV
  | Occupation number:      2.00000000

  Lowest unoccupied state (CBM) at   -17.43653727 eV
  | Occupation number:      0.50000015

  Overall HOMO-LUMO gap:      8.17375778 eV.

  Total energy components:
  | Sum of eigenvalues            :         -89.79637932 Ha       -2443.48380428 eV
  | XC energy correction          :         -16.45369163 Ha        -447.72772943 eV
  | XC potential correction       :          21.14564215 Ha         575.40219900 eV
  | Free-atom electrostatic energy:         -71.50995472 Ha       -1945.88487358 eV
  | Hartree energy correction     :           6.82130251 Ha         185.61708545 eV
  | Entropy correction            :          -0.00016515 Ha          -0.00449404 eV
  | ---------------------------
  | Total energy                  :        -149.79308101 Ha       -4076.07712284 eV
  | Total energy, T -> 0          :        -149.79324616 Ha       -4076.08161688 eV  <-- do not rely on this value for anything but (periodic) metals
  | Electronic free energy        :        -149.79341132 Ha       -4076.08611092 eV

  Derived energy quantities:
  | Kinetic energy                :         149.45658018 Ha        4066.92046942 eV
  | Electrostatic energy          :        -282.79596956 Ha       -7695.26986283 eV
  | Energy correction for multipole
  | error in Hartree potential    :          -0.00054343 Ha          -0.01478740 eV
  | Sum of eigenvalues per atom                           :       -1221.74190214 eV
  | Total energy (T->0) per atom                          :       -2038.04080844 eV  <-- do not rely on this value for anything but (periodic) metals
  | Electronic free energy per atom                       :       -2038.04305546 eV

  atomic forces [eV/Ang]:
  -----------------------
  atom #    1
   Hellmann-Feynman              :  0.290598E-10 -0.347305E-01 -0.155921E+02
   Ionic forces                  :  0.000000E+00  0.000000E+00  0.000000E+00
   Multipole                     : -0.237308E-13 -0.133110E-03 -0.593844E-01
   Pulay + GGA                   :  0.000000E+00  0.000000E+00  0.000000E+00
   ----------------------------------------------------------------
   Total forces(   1)            :  0.290361E-10 -0.348636E-01 -0.156515E+02
  atom #    2
   Hellmann-Feynman              : -0.217731E-10  0.347305E-01  0.155921E+02
   Ionic forces                  :  0.000000E+00  0.000000E+00  0.000000E+00
   Multipole                     :  0.243218E-13  0.133110E-03  0.593844E-01
   Pulay + GGA                   :  0.000000E+00  0.000000E+00  0.000000E+00
   ----------------------------------------------------------------
   Total forces(   2)            : -0.217488E-10  0.348636E-01  0.156515E+02


  Self-consistency convergence accuracy:
  | Change of charge density      :  0.7611E-05
  | Change of sum of eigenvalues  : -0.5740E-03 eV
  | Change of total energy        :  0.3735E-09 eV
  | Change of forces              :  0.1565E+02 eV/A

  End self-consistency iteration #    13       :  max(cpu_time)    wall_clock(cpu1)
  | Time for this iteration                    :        0.147 s           0.146 s
  | Charge density & force component update    :        0.030 s           0.029 s
  | Density mixing                             :        0.003 s           0.003 s
  | Hartree multipole update                   :        0.005 s           0.004 s
  | Hartree multipole summation                :        0.065 s           0.066 s
  | Integration                                :        0.042 s           0.041 s
  | Solution of K.-S. eqns.                    :        0.001 s           0.002 s
  | Total energy evaluation                    :        0.001 s           0.001 s
------------------------------------------------------------

------------------------------------------------------------
          Begin self-consistency iteration #   14

  Date     :  20190722, Time     :  144533.894
------------------------------------------------------------
  Evaluating new KS density and force components.
  Integration grid: deviation in total charge (<rho> - N_e) =   1.794120E-13
  Pulay mixing of updated and previous charge densities.

  Evaluating partitioned Hartree potential by multipole expansion.
  | Analytical far-field extrapolation by fixed multipoles:
  | Hartree multipole sum: apparent total charge =   0.999999E+00
  Summing up the Hartree potential.
  Time summed over all CPUs for potential: real work        0.254 s, elapsed        0.259 s
  | RMS charge density error from multipole expansion :   0.495332E-03

  Integrating Hamiltonian matrix: batch-based integration.
  Time summed over all CPUs for integration: real work        0.166 s, elapsed        0.167 s

  Updating Kohn-Sham eigenvalues, eigenvectors, occupation numbers, and Fermi level.
  Solving generalized eigenproblem
  Updating Kohn-Sham eigenvalues and eigenfunctions.
  Solving real generalised eigenvalue problem by standard LAPACK (fast)
  Determining occupation numbers for Kohn-Sham eigenstates.
  | Chemical potential (Fermi level) in eV                 : -.17441307E+02
  | Error in electron count due to remaining E_F inaccuracy: 0.25046631E-12
  | Maximum occupation number of highest empty state:  0.00E+00

  Highest occupied state (VBM) at    -25.61029528 eV
  | Occupation number:      2.00000000

  Lowest unoccupied state (CBM) at   -17.43653750 eV
  | Occupation number:      0.50000011

  Overall HOMO-LUMO gap:      8.17375778 eV.

  Total energy components:
  | Sum of eigenvalues            :         -89.79637943 Ha       -2443.48380746 eV
  | XC energy correction          :         -16.45369163 Ha        -447.72772940 eV
  | XC potential correction       :          21.14564215 Ha         575.40219897 eV
  | Free-atom electrostatic energy:         -71.50995472 Ha       -1945.88487358 eV
  | Hartree energy correction     :           6.82130263 Ha         185.61708863 eV
  | Entropy correction            :          -0.00016515 Ha          -0.00449404 eV
  | ---------------------------
  | Total energy                  :        -149.79308101 Ha       -4076.07712284 eV
  | Total energy, T -> 0          :        -149.79324616 Ha       -4076.08161688 eV  <-- do not rely on this value for anything but (periodic) metals
  | Electronic free energy        :        -149.79341132 Ha       -4076.08611092 eV

  Derived energy quantities:
  | Kinetic energy                :         149.45658019 Ha        4066.92046950 eV
  | Electrostatic energy          :        -282.79596957 Ha       -7695.26986294 eV
  | Energy correction for multipole
  | error in Hartree potential    :          -0.00054343 Ha          -0.01478740 eV
  | Sum of eigenvalues per atom                           :       -1221.74190373 eV
  | Total energy (T->0) per atom                          :       -2038.04080844 eV  <-- do not rely on this value for anything but (periodic) metals
  | Electronic free energy per atom                       :       -2038.04305546 eV

  atomic forces [eV/Ang]:
  -----------------------
  atom #    1
   Hellmann-Feynman              :  0.184892E-10 -0.347305E-01 -0.155921E+02
   Ionic forces                  :  0.000000E+00  0.000000E+00  0.000000E+00
   Multipole                     : -0.116024E-12 -0.133110E-03 -0.593844E-01
   Pulay + GGA                   : -0.115265E-10  0.348634E-01  0.156517E+02
   ----------------------------------------------------------------
   Total forces(   1)            :  0.684671E-11 -0.229504E-06  0.258899E-03
  atom #    2
   Hellmann-Feynman              :  0.757065E-11  0.347305E-01  0.155921E+02
   Ionic forces                  :  0.000000E+00  0.000000E+00  0.000000E+00
   Multipole                     : -0.729514E-14  0.133110E-03  0.593844E-01
   Pulay + GGA                   :  0.965677E-11 -0.348634E-01 -0.156517E+02
   ----------------------------------------------------------------
   Total forces(   2)            :  0.172201E-10  0.229459E-06 -0.258899E-03


  Self-consistency convergence accuracy:
  | Change of charge density      :  0.6108E-07
  | Change of sum of eigenvalues  : -0.3183E-05 eV
  | Change of total energy        : -0.2320E-11 eV
  | Change of forces              :  0.3229E-05 eV/A

  Writing Kohn-Sham eigenvalues.

  State    Occupation    Eigenvalue [Ha]    Eigenvalue [eV]
      1       2.00000         -19.412611         -528.24402
      2       2.00000         -19.412392         -528.23807
      3       2.00000          -1.743891          -47.45369
      4       2.00000          -1.151970          -31.34670
      5       2.00000          -0.957887          -26.06543
      6       2.00000          -0.957887          -26.06543
      7       2.00000          -0.941161          -25.61030
      8       0.50000          -0.640781          -17.43654
      9       0.50000          -0.640781          -17.43654
     10       0.00000          -0.181164           -4.92973
     11       0.00000          -0.160859           -4.37719
     12       0.00000          -0.115282           -3.13697
     13       0.00000          -0.115282           -3.13697
     14       0.00000          -0.061531           -1.67435

  Highest occupied state (VBM) at    -25.61029528 eV
  | Occupation number:      2.00000000

  Lowest unoccupied state (CBM) at   -17.43653750 eV
  | Occupation number:      0.50000011

  Overall HOMO-LUMO gap:      8.17375778 eV.

  Self-consistency cycle converged.

  End self-consistency iteration #    14       :  max(cpu_time)    wall_clock(cpu1)
  | Time for this iteration                    :        0.217 s           0.218 s
  | Charge density & force component update    :        0.100 s           0.099 s
  | Density mixing                             :        0.003 s           0.003 s
  | Hartree multipole update                   :        0.005 s           0.004 s
  | Hartree multipole summation                :        0.066 s           0.065 s
  | Integration                                :        0.042 s           0.042 s
  | Solution of K.-S. eqns.                    :        0.001 s           0.001 s
  | Total energy evaluation                    :        0.001 s           0.001 s
------------------------------------------------------------
  Writing cluster restart information to file restart
  ------------------------------------------------------------
   Computing monopole / dipole moments for complete molecule:
  | Total electronic charge [e]         :          0.150000000851155E+02
  | Total ionic charge [e]              :          0.160000000000000E+02
  | Total charge [e]                    :          0.999999914884537E+00
 * Warning: The system has a total charge of      0.99999991 .
 * The dipole moment depends on the choice of the origin.
  | Total dipole moment [eAng]          :         -0.743927855054172E-14         0.124999989361619E-02         0.603749948611573E+00
  | Absolute dipole moment              :          0.603751242605935E+00 eAng              /                   0.289948885500543E+01 Debye  .
  Removing unitary transformations (pure translations, rotations) from forces on atoms.
  Atomic forces before filtering:
  | Net force on center of mass :   0.240668E-10 -0.458041E-10  0.881148E-11 eV/A
  | Net torque on center of mass:  -0.904906E-06  0.582354E-11 -0.129668E-13 eV
  Atomic forces after filtering:
  | Net force on center of mass :   0.519230E-26  0.000000E+00  0.000000E+00 eV/A
  | Net torque on center of mass:   0.900349E-22  0.000000E+00  0.000000E+00 eV

  Energy and forces in a compact form:
  | Total energy uncorrected      :         -0.407607712284122E+04 eV
  | Total energy corrected        :         -0.407608161688051E+04 eV  <-- do not rely on this value for anything but (periodic) metals
  | Electronic free energy        :         -0.407608611091980E+04 eV
  Total atomic forces (unitary forces cleaned) [eV/Ang]:
  |   1          0.259615079450449E-26          0.576464711888038E-06          0.258897584011158E-03
  |   2          0.259615079450449E-26         -0.576464711888038E-06         -0.258897584011158E-03

  ------------------------------------ 
  Start decomposition of the XC Energy 
  ------------------------------------ 
  Hartree-Fock part   :          0.000000000 Ha              0.000000000 eV
  ------------------------------------ 
  X Energy            :        -15.950250865 Ha           -434.028409162 eV
  C Energy GGA        :         -0.503440765 Ha            -13.699320240 eV
  Total XC Energy     :        -16.453691630 Ha           -447.727729402 eV
  LDA X and C from self-consistent density 
  X Energy LDA        :        -14.465847514 Ha           -393.635738822 eV
  C Energy LDA        :         -1.061660392 Ha            -28.889249148 eV
  ------------------------------------ 
  End decomposition of the XC Energy 
  ------------------------------------ 

------------------------------------------------------------------------------
  Final output of selected total energy values:

  The following output summarizes some interesting total energy values
  at the end of a run (AFTER all relaxation, molecular dynamics, etc.).

  | Total energy of the DFT / Hartree-Fock s.c.f. calculation      :          -4076.077122841 eV
  | Final zero-broadening corrected energy (caution - metals only) :          -4076.081616881 eV
  | For reference only, the value of 1 Hartree used in FHI-aims is :             27.211384500 eV

  Before relying on these values, please be sure to understand exactly which
  total energy value is referred to by a given number. Different objects may
  all carry the same name 'total energy'. Definitions:

  Total energy of the DFT / Hartree-Fock s.c.f. calculation:
  | Note that this energy does not include ANY quantities calculated after the
  | s.c.f. cycle, in particular not ANY RPA, MP2, etc. many-body perturbation terms.

  Final zero-broadening corrected energy:
  | For metallic systems only, a broadening of the occupation numbers at the Fermi
  | level can be extrapolated back to zero broadening by an electron-gas inspired
  | formula. For all systems that are not real metals, this value can be
  | meaningless and should be avoided.

------------------------------------------------------------------------------
  Methods described in the following list of references were used in this FHI-aims run.
  If you publish the results, please make sure to cite these reference if they apply.
  FHI-aims is an academic code, and for our developers (often, Ph.D. students
  and postdocs), scientific credit in the community is essential.
  Thank you for helping us!

  For any use of FHI-aims, please cite:

    Volker Blum, Ralf Gehrke, Felix Hanke, Paula Havu, Ville Havu,
    Xinguo Ren, Karsten Reuter, and Matthias Scheffler
    'Ab initio molecular simulations with numeric atom-centered orbitals'
    Computer Physics Communications 180, 2175-2196 (2009)
    http://dx.doi.org/10.1016/j.cpc.2009.06.022


  For the real-space grid partitioning and parallelization used in this calculation, please cite:

    Ville Havu, Volker Blum, Paula Havu, and Matthias Scheffler,
    'Efficient O(N) integration for all-electron electronic structure calculation'
    'using numerically tabulated basis functions'
    Journal of Computational Physics 228, 8367-8379 (2009).
    http://dx.doi.org/10.1016/j.jcp.2009.08.008

  Of course, there are many other important community references, e.g., those cited in the
  above references. Our list is limited to references that describe implementations in the
  FHI-aims code. The reason is purely practical (length of this list) - please credit others as well.

------------------------------------------------------------
          Leaving FHI-aims.
          Date     :  20190722, Time     :  144534.154

          Computational steps:
          | Number of self-consistency cycles          :           14

          Detailed time accounting                     :  max(cpu_time)    wall_clock(cpu1)
          | Total time                                 :        2.226 s           2.257 s
          | Preparation time                           :        0.148 s           0.160 s
          | Grid partitioning                          :        0.023 s           0.023 s
          | Preloading free-atom quantities on grid    :        0.017 s           0.021 s
          | Free-atom superposition energy             :        0.008 s           0.008 s
          | Total time for integrations                :        0.694 s           0.692 s
          | Total time for solution of K.-S. equations :        0.027 s           0.027 s
          | Total time for density & force components  :        0.524 s           0.519 s
          | Total time for mixing                      :        0.036 s           0.039 s
          | Total time for Hartree multipole update    :        0.066 s           0.055 s
          | Total time for Hartree multipole sum       :        0.465 s           0.465 s
          | Total time for total energy evaluation     :        0.008 s           0.013 s

          Have a nice day.
------------------------------------------------------------
