  MPI-parallelism will be employed.
------------------------------------------------------------
          Invoking FHI-aims ...
          Version 160328_3
          Compiled on 2019/06/10 at 14:55:49 on host taito-login3.csc.fi.

          When using FHI-aims, please cite the following reference:

          Volker Blum, Ralf Gehrke, Felix Hanke, Paula Havu,
          Ville Havu, Xinguo Ren, Karsten Reuter, and Matthias Scheffler,
          'Ab Initio Molecular Simulations with Numeric Atom-Centered Orbitals',
          Computer Physics Communications 180, 2175-2196 (2009)

          For any questions about FHI-aims, please visit the aimsclub website
          with its forums and wiki. Contributions to both the forums and the
          wiki are warmly encouraged - they are for you, and everyone is welcome there.

------------------------------------------------------------

  Date     :  20190722, Time     :  143506.999
  Time zero on CPU 1             :   0.849870000000000E-01  s.
  Internal wall clock time zero  :           333038106.999  s.

  Using        8 parallel tasks.
  Task        0 on host c635 reporting.
  Task        1 on host c635 reporting.
  Task        2 on host c635 reporting.
  Task        3 on host c635 reporting.
  Task        4 on host c635 reporting.
  Task        5 on host c635 reporting.
  Task        6 on host c635 reporting.
  Task        7 on host c635 reporting.

  Performing system and environment tests:
  | Environment variable OMP_NUM_THREADS correctly set to 1.
  | Maximum stacksize for task 0: unlimited
  | Maximum stacksize for task 1: unlimited
  | Maximum stacksize for task 2: unlimited
  | Maximum stacksize for task 3: unlimited
  | Maximum stacksize for task 4: unlimited
  | Maximum stacksize for task 5: unlimited
  | Maximum stacksize for task 6: unlimited
  | Maximum stacksize for task 7: unlimited
  | Current stacksize for task 0: 1024 [Mb]
  | Current stacksize for task 1: 1024 [Mb]
  | Current stacksize for task 2: 1024 [Mb]
  | Current stacksize for task 3: 1024 [Mb]
  | Current stacksize for task 4: 1024 [Mb]
  | Current stacksize for task 5: 1024 [Mb]
  | Current stacksize for task 6: 1024 [Mb]
  | Current stacksize for task 7: 1024 [Mb]
  | Checking for scalapack...
  | No scalapack compiled in.

  Obtaining array dimensions for all initial allocations:
  
  -----------------------------------------------------------------------
  Parsing control.in (first pass over file, find array dimensions only).
  The contents of control.in will be repeated verbatim below
  unless switched off by setting 'verbatim_writeout .false.' .
  in the first line of control.in .
  -----------------------------------------------------------------------
  
    #  Physical model settings
    #
  
    xc                            pbe
    charge                        0.0
    relativistic                  none
  #  default_initial_moment        0.0
    spin                          none
  #  vdw_correction_hirshfeld
  
    #  SCF convergence settings
    #
  
    sc_accuracy_rho               1E-4
    sc_accuracy_eev               1E-2
    sc_accuracy_etot              1E-8
    sc_iter_limit                 100
  
    #  Occupation settings
    #
  
    restart                       restart
  #  force_occupation_projector      21 1 1.0 20 21 # ion 0
  #  force_occupation_projector      20 1 1.0 20 21 # ion 1
  #  force_occupation_projector      19 1 1.0 18 19 # ion 2
  #  force_occupation_projector      18 1 1.0 18 19 # ion 3
  #  force_occupation_projector      17 1 1.0 17 17 # ion 4
  
    #  Relaxation
    #
  
    ############relax_geometry                bfgs    1.e-4
  
  
  ################################################################################
  #
  #  FHI-aims code project
  #  VB, Fritz-Haber Institut, 2007
  #
  #  Suggested "safe" defaults for O atom (to be pasted into control.in file)
  #
  ################################################################################
    species        O
  #     global species definitions
      nucleus             8
      mass                15.9994
  #
      l_hartree           8
  #
      cut_pot             4.0  2.0  1.0
      basis_dep_cutoff    0.d0
  #
      radial_base         36 7.0
      radial_multiplier   2
       angular_grids specified
        division   0.4087  110
        division   0.5181  194
        division   0.6184  302
        division   0.7315  434
        division   0.7934  590
  #      division   0.9656  770
  #      division   1.4041  974
  #      outer_grid 974
        outer_grid 590
  ################################################################################
  #
  #  Definition of "minimal" basis
  #
  ################################################################################
  #     valence basis states
      valence      2  s   2.
      valence      2  p   4.
  #     ion occupancy
      ion_occ      2  s   1.
      ion_occ      2  p   3.
  ################################################################################
  #
  #  Suggested additional basis functions. For production calculations,
  #  uncomment them one after another (the most important basis functions are
  #  listed first).
  #
  #  Constructed for dimers: 1.0 A, 1.208 A, 1.5 A, 2.0 A, 3.0 A
  #
  ################################################################################
  #  "First tier" - improvements: -699.05 meV to -159.38 meV
       hydro 2 p 1.8
       hydro 3 d 7.6
       hydro 3 s 6.4
  #  "Second tier" - improvements: -49.91 meV to -5.39 meV
       hydro 4 f 11.6
       hydro 3 p 6.2
       hydro 3 d 5.6
       hydro 5 g 17.6
       hydro 1 s 0.75
  #  "Third tier" - improvements: -2.83 meV to -0.50 meV
  #     ionic 2 p auto
  #     hydro 4 f 10.8
  #     hydro 4 d 4.7
  #     hydro 2 s 6.8
  #  "Fourth tier" - improvements: -0.40 meV to -0.12 meV
  #     hydro 3 p 5
  #     hydro 3 s 3.3
  #     hydro 5 g 15.6
  #     hydro 4 f 17.6
  #     hydro 4 d 14
  # Further basis functions - -0.08 meV and below
  #     hydro 3 s 2.1
  #     hydro 4 d 11.6
  #     hydro 3 p 16
  #     hydro 2 s 17.2
  compute_forces .true.
  final_forces_cleaned .true.
  output dipole
  
  -----------------------------------------------------------------------
  Completed first pass over input file control.in .
  -----------------------------------------------------------------------
  
  
  -----------------------------------------------------------------------
  Parsing geometry.in (first pass over file, find array dimensions only).
  The contents of geometry.in will be repeated verbatim below
  unless switched off by setting 'verbatim_writeout .false.' .
  in the first line of geometry.in .
  -----------------------------------------------------------------------
  
  #
  # temporary structure-file for finite-difference calculation of forces
  # displacement   0.0025 of \# atom     1 direction     2
  #
  atom   -0.00000000    0.00000000    0.04235893   O
  atom   -0.00000000    0.00000000    1.16764107   O
  
  -----------------------------------------------------------------------
  Completed first pass over input file geometry.in .
  -----------------------------------------------------------------------
  

  Basic array size parameters:
  | Number of species                 :        1
  | Number of atoms                   :        2
  | Max. basis fn. angular momentum   :        4
  | Max. atomic/ionic basis occupied n:        2
  | Max. number of basis fn. types    :        2
  | Max. radial fns per species/type  :        8
  | Max. logarithmic grid size        :     1301
  | Max. radial integration grid size :       73
  | Max. angular integration grid size:      590
  | Max. angular grid division number :        8
  | Radial grid for Hartree potential :     1301
  | Number of spin channels           :        1

------------------------------------------------------------
          Reading file control.in.
------------------------------------------------------------
  XC: Using PBE gradient-corrected functionals.
  Charge =   0.000000E+00: Neutral system requested explicitly.
  Non-relativistic treatment of kinetic energy.
  Spin treatment: No spin polarisation.
  Convergence accuracy of self-consistent charge density:  0.1000E-03
  Convergence accuracy of sum of eigenvalues:  0.1000E-01
  Convergence accuracy of total energy:  0.1000E-07
  Maximum number of s.-c. iterations  :   100
  Restart file specified as : restart
  | This file does not exist, will create it after the first complete scf cycle.
 
  Reading configuration options for species O                   .
  | Found nuclear charge :   8.0000
  | Found atomic mass :    15.9994000000000      amu
  | Found l_max for Hartree potential  :   8
  | Found cutoff potl. onset [A], width [A], scale factor :    4.00000    2.00000    1.00000
  | Threshold for basis-dependent cutoff potential is   0.000000E+00
  | Found data for basic radial integration grid :    36 points, outermost radius =    7.000 A
  | Found multiplier for basic radial grid :   2
  | Found angular grid specification: user-specified.
  | Specified grid contains     6 separate shells.
  | Check grid settings after all constraints further below.
  | Found free-atom valence shell :  2 s   2.000
  | Found free-atom valence shell :  2 p   4.000
  | No ionic wave fns used. Skipping ion_occ.
  | No ionic wave fns used. Skipping ion_occ.
  | Found hydrogenic basis function :  2 p   1.800
  | Found hydrogenic basis function :  3 d   7.600
  | Found hydrogenic basis function :  3 s   6.400
  | Found hydrogenic basis function :  4 f  11.600
  | Found hydrogenic basis function :  3 p   6.200
  | Found hydrogenic basis function :  3 d   5.600
  | Found hydrogenic basis function :  5 g  17.600
  | Found hydrogenic basis function :  1 s   0.750
  Species O                   : Missing cutoff potential type.
  Defaulting to exp(1/x)/(1-x)^2 type cutoff potential.
  Species O : No 'logarithmic' tag. Using default grid for free atom:
  | Default logarithmic grid data [bohr] : 0.1000E-03 0.1000E+03 0.1012E+01
  Species O : On-site basis accuracy parameter (for Gram-Schmidt orthonormalisation) not specified.
  Using default value basis_acc =  0.1000000E-03.
  Species O                   : Using default innermost maximum threshold i_radial=  2 for radial functions.
  Species O                   : Default cutoff onset for free atom density etc. : 0.40000000E+01 AA.
  Species O                   : Basic radial grid will be enhanced according to radial_multiplier =   2, to contain    73 grid points.
  Forces will be computed.
  Cleaning forces before final output.
  Dipole moment will be written out.
 
  Finished reading input file 'control.in'. Consistency checks are next.
 
  Target number of points in a grid batch is not set. Defaulting to  100
  Method for grid partitioning is not set. Defaulting to parallel hash+maxmin partitioning.
  Batch size limit is not set. Defaulting to    200
  By default, will store active basis functions for each batch.
  If in need of memory, prune_basis_once .false. can be used to disable this option.
  communication_type for Hartree potential was not specified.
  Defaulting to calc_hartree .
  Defaulting to Pulay charge density mixer.
  Pulay mixer: Number of relevant iterations not set.
  Defaulting to    8 iterations.
  Pulay mixer: Number of initial linear mixing iterations not set.
  Defaulting to    0 iterations.
  Work space size for distributed Hartree potential not set.
  Defaulting to   0.200000E+03 MB.
  Mixing parameter for charge density mixing has not been set.
  Using default: charge_mix_param =     0.2000.
  Algorithm-dependent basis array size parameters:
  | n_max_pulay                         :        8
  Geometry relaxation not requested: no relaxation will be performed.
  Force calculation: scf convergence accuracy of forces not set.
  Defaulting to  0.1000E-03 eV/A.
  Handling of forces: Unphysical translation and rotation will be removed from forces.
  No accuracy limit for integral partition fn. given. Defaulting to  0.1000E-14.
  No threshold value for u(r) in integrations given. Defaulting to  0.1000E-05.
  No occupation type (smearing scheme) given. Defaulting to Gaussian broadening, width =  0.1000E-01 eV.
  No accuracy for occupation numbers given. Defaulting to  0.1000E-07.
  No threshold value for occupation numbers given. Defaulting to  0.0000E+00.
  No accuracy for fermi level given. Defaulting to  0.1000E-19.
  Maximum # of iterations to find E_F not set. Defaulting to  200.
  Preferred method for the eigenvalue solver ('KS_method') not specified in 'control.in'.
  Calling blacs routine to test compilation state
  The best choice would be 'elpa', but your version of FHI-aims is compiled without scalapack support.
  Defaulting to 'lapack_fast' instead (serial solution, time will not improve with more CPUs).
  Will not use alltoall communication since running on < 1024 CPUs.
  Threshold for basis singularities not set.
  Default threshold for basis singularities:  0.1000E-04
  partition_type (choice of integration weights) for integrals was not specified.
  | Using a version of the partition function of Stratmann and coworkers ('stratmann_smoother').
  | At each grid point, the set of atoms used to build the partition table is smoothly restricted to
  | only those atoms whose free-atom density would be non-zero at that grid point.
  Partitioning for Hartree potential was not defined. Using partition_type for integrals.
  | Adjusted default value of keyword multip_moments_threshold to:       0.10000000E-11
  | This value may affect high angular momentum components of the Hartree potential in periodic systems.
  No q(lm)/r^(l+1) cutoff set for long-range Hartree potential.
  | Using default value of  0.100000E-09 .
  | Verify using the multipole_threshold keyword.
  Defaulting to new monopole extrapolation.
  Density update method: automatic selection selected.
------------------------------------------------------------


------------------------------------------------------------
          Reading geometry description geometry.in.
------------------------------------------------------------
  Input structure read successfully.
  The structure contains        2 atoms,  and a total of         16.000 electrons.

  Input geometry:
  | No unit cell requested.
  | Atomic structure:
  |       Atom                x [A]            y [A]            z [A]
  |    1: Species O              0.000000         0.000000         0.042359
  |    2: Species O              0.000000         0.000000         1.167641
  |

  | The smallest distance between any two atoms is         1.12528214 AA.
  |
  | The first atom of this pair is atom number                      1 .
  | The second atom of this pair is atom number                     2 .

  Number of empty states per atom not set in control.in - providing a guess from actual geometry.
  | Total number of empty states used during s.c.f. cycle:        6
  If you use a very high smearing, use empty_states (per atom!) in control.in to increase this value.

  Structure-dependent array size parameters: 
  | Maximum number of distinct radial functions  :       11
  | Maximum number of basis functions            :       78
  | Number of Kohn-Sham states (occupied + empty):       14
------------------------------------------------------------

------------------------------------------------------------
          Preparing all fixed parts of the calculation.
------------------------------------------------------------
  Determining machine precision:
    2.225073858507201E-308
  Setting up grids for atomic and cluster calculations.

  Creating wave function, potential, and density for free atoms.

  Species: O

  List of occupied orbitals and eigenvalues:
    n    l              occ      energy [Ha]    energy [eV]
    1    0           2.0000       -18.898576      -514.2564
    2    0           2.0000        -0.878795       -23.9132
    2    1           4.0000        -0.332075        -9.0362

  Creating fixed part of basis set: Ionic, confined, hydrogenic.
 
  O                    hydrogenic:
 
  List of hydrogenic basis orbitals: 
    n    l      effective z      eigenvalue [eV]  inner max. [A]     outer max. [A]     outer radius [A]   
    2    1         1.800000       -11.0118           1.178562           1.178562           5.432602
    3    2         7.600000       -87.3183           0.624125           0.624125           4.634338
    3    0         6.400000       -61.9210           0.061167           1.081902           5.110480
    4    3        11.600000      -114.4239           0.731631           0.731631           4.522403
    3    1         6.200000       -58.1114           0.255680           1.030270           5.110480
    3    2         5.600000       -47.4083           0.847233           0.847233           5.173339
    5    4        17.600000      -168.5800           0.749740           0.749740           4.051222
    1    0         0.750000        -7.6499           0.705284           0.705284           5.366593
 

  Adding cutoff potential to free-atom effective potential.
  Creating atomic-like basis functions for current effective potential.

  Species O                   :

  List of atomic basis orbitals and eigenvalues:
    n    l      energy [Ha]    energy [eV]    outer radius [A]
    1    0       -18.898576      -514.2564       1.415765
    2    0        -0.878795       -23.9132       5.048385
    2    1        -0.332075        -9.0362       5.301386

  Assembling full basis from fixed parts.
  | Species O :   atomic orbital   1 s accepted.
  | Species O :   atomic orbital   2 s accepted.
  | Species O :    hydro orbital   3 s accepted.
  | Species O :    hydro orbital   1 s accepted.
  | Species O :   atomic orbital   2 p accepted.
  | Species O :    hydro orbital   2 p accepted.
  | Species O :    hydro orbital   3 p accepted.
  | Species O :    hydro orbital   3 d accepted.
  | Species O :    hydro orbital   3 d accepted.
  | Species O :    hydro orbital   4 f accepted.
  | Species O :    hydro orbital   5 g accepted.
 
  Basis size parameters after reduction:
  | Total number of radial functions:       11
  | Total number of basis functions :       78
 
  Testing on-site integration grid accuracy.
  |  Species  Function  <phi|h_atom|phi> (log., in eV)  <phi|h_atom|phi> (rad., in eV)
           1        1               -514.2564144315               -514.2564099626
           1        2                -23.9132357102                -23.9132356433
           1        3                 17.5398579759                 17.5398338425
           1        4                 14.5207278950                 14.5207740449
           1        5                 -9.0362392718                 -9.0362394845
           1        6                  7.9056275927                  7.9056237490
           1        7                 33.4201658992                 33.4201612015
           1        8                 45.8231952720                 45.8231953152
           1        9                 52.1937595491                 52.1937593440
           1       10                 85.4062894308                 85.4062894578
           1       11                142.0975701139                142.0975701391

  Preparing densities etc. for the partition functions (integrals / Hartree potential).

  Preparations completed.
  max(cpu_time)          :      0.157 s.
  Wall clock time (cpu1) :      0.165 s.
------------------------------------------------------------

------------------------------------------------------------
          Begin self-consistency loop: Initialization.

          Date     :  20190722, Time     :  143507.184
------------------------------------------------------------

  Initializing index lists of integration centers etc. from given atomic structure:
  | Number of centers in hartree potential         :         2
  | Number of centers in hartree multipole         :         2
  | Number of centers in electron density summation:         2
  | Number of centers in basis integrals           :         2
  | Number of centers in integrals                 :         2
  | Number of centers in hamiltonian               :         2
  Partitioning the integration grid into batches with parallel hashing+maxmin method.
  | Number of batches:      836
  | Maximal batch size:     118
  | Minimal batch size:      49
  | Average batch size:      63.708
  | Standard deviation of batch sizes:      18.372

  Integration load balanced across     8 MPI tasks.
  Work distribution over tasks is as follows:
  Task     0 has       6628 integration points.
  Task     1 has       6628 integration points.
  Task     2 has       6643 integration points.
  Task     3 has       6687 integration points.
  Task     4 has       6691 integration points.
  Task     5 has       6720 integration points.
  Task     6 has       6639 integration points.
  Task     7 has       6624 integration points.
  Initializing partition tables, free-atom densities, potentials, etc. across the integration grid (initialize_grid_storage).
  | initialize_grid_storage: Actual outermost partition radius vs. multipole_radius_free
  | (-- VB: in principle, multipole_radius_free should be larger, hence this output)
  | Species        1: Confinement radius =              6.000000000000000 AA, multipole_radius_free =              6.064445521808699 AA.
  | Species        1: outer_partition_radius set to              6.064445521808699 AA .
  | Original list of interatomic distances with           2 x          2 entries is created.
  | Net number of integration points:    53260
  | of which are non-zero points    :    50010
  Obtaining max. number of non-zero basis functions in each batch (get_n_compute_maxes).
  | Maximal number of non-zero basis functions:       78 in task     0
  | Maximal number of non-zero basis functions:       78 in task     1
  | Maximal number of non-zero basis functions:       78 in task     2
  | Maximal number of non-zero basis functions:       78 in task     3
  | Maximal number of non-zero basis functions:       78 in task     4
  | Maximal number of non-zero basis functions:       78 in task     5
  | Maximal number of non-zero basis functions:       78 in task     6
  | Maximal number of non-zero basis functions:       78 in task     7
  Selecting the method for density update.
  Loop over occupied states selected for charge density update.
  Integrating Hamiltonian matrix: batch-based integration.
  Time summed over all CPUs for integration: real work        0.184 s, elapsed        0.191 s
  Integrating overlap matrix.
  Time summed over all CPUs for integration: real work        0.066 s, elapsed        0.069 s

  Updating Kohn-Sham eigenvalues, eigenvectors, occupation numbers, and Fermi level.
  Solving generalized eigenproblem
  Updating Kohn-Sham eigenvalues and eigenfunctions.
  Transforming overlap matrix and checking for singularities.
  Overlap matrix is nonsingular:
  | Lowest eigenvalue:  0.187908E-03
  Solving real generalised eigenvalue problem by standard LAPACK (fast)
  Determining occupation numbers for Kohn-Sham eigenstates.
  | Chemical potential (Fermi level) in eV                 : -.60606617E+01
  | Error in electron count due to remaining E_F inaccuracy: 0.14718182E-09
  | Maximum occupation number of highest empty state:  0.00E+00

  Writing Kohn-Sham eigenvalues.

  State    Occupation    Eigenvalue [Ha]    Eigenvalue [eV]
      1       2.00000         -18.952492         -515.72354
      2       2.00000         -18.952282         -515.71782
      3       2.00000          -1.276153          -34.72590
      4       2.00000          -0.749652          -20.39908
      5       2.00000          -0.542383          -14.75900
      6       2.00000          -0.526145          -14.31712
      7       2.00000          -0.526145          -14.31712
      8       1.00000          -0.222725           -6.06066
      9       1.00000          -0.222725           -6.06066
     10       0.00000           0.089812            2.44392
     11       0.00000           0.095111            2.58810
     12       0.00000           0.127619            3.47268
     13       0.00000           0.127619            3.47268
     14       0.00000           0.202118            5.49990

  Highest occupied state (VBM) at     -6.06066166 eV
  | Occupation number:      1.00000000

  Lowest unoccupied state (CBM) at     2.44392024 eV
  | Occupation number:      0.00000000

  Overall HOMO-LUMO gap:      8.50458191 eV.
  Calculating total energy contributions from superposition of free atom densities.

  Total energy components:
  | Sum of eigenvalues            :         -83.49595337 Ha       -2272.04049146 eV
  | XC energy correction          :         -16.81893123 Ha        -457.66640445 eV
  | XC potential correction       :          21.62474804 Ha         588.43933364 eV
  | Free-atom electrostatic energy:         -71.52331217 Ha       -1946.24834828 eV
  | Hartree energy correction     :           0.00000000 Ha           0.00000000 eV
  | Entropy correction            :          -0.00020734 Ha          -0.00564190 eV
  | ---------------------------
  | Total energy                  :        -150.21344873 Ha       -4087.51591054 eV
  | Total energy, T -> 0          :        -150.21365607 Ha       -4087.52155243 eV  <-- do not rely on this value for anything but (periodic) metals
  | Electronic free energy        :        -150.21386340 Ha       -4087.52719433 eV

  Derived energy quantities:
  | Kinetic energy                :         149.91505824 Ha        4079.39629203 eV
  | Electrostatic energy          :        -283.30957574 Ha       -7709.24579812 eV
  | Energy correction for multipole
  | error in Hartree potential    :           0.00000000 Ha           0.00000000 eV
  | Sum of eigenvalues per atom                           :       -1136.02024573 eV
  | Total energy (T->0) per atom                          :       -2043.76077622 eV  <-- do not rely on this value for anything but (periodic) metals
  | Electronic free energy per atom                       :       -2043.76359716 eV
  Initialize hartree_potential_storage
  Max. number of atoms included in rho_multipole:            2

  End scf initialization - timings             :  max(cpu_time)    wall_clock(cpu1)
  | Time for scf. initialization               :        0.099 s           0.098 s
  | Boundary condition initialization          :        0.001 s           0.001 s
  | Integration                                :        0.034 s           0.034 s
  | Solution of K.-S. eqns.                    :        0.011 s           0.011 s
  | Grid partitioning                          :        0.019 s           0.019 s
  | Preloading free-atom quantities on grid    :        0.018 s           0.018 s
  | Free-atom superposition energy             :        0.005 s           0.005 s
  | Total energy evaluation                    :        0.001 s           0.002 s
------------------------------------------------------------

------------------------------------------------------------
          Begin self-consistency iteration #    1

  Date     :  20190722, Time     :  143507.284
------------------------------------------------------------
  Evaluating new KS density.
  Integration grid: deviation in total charge (<rho> - N_e) =   1.471605E-10
  Pulay mixing of updated and previous charge densities.

  Evaluating partitioned Hartree potential by multipole expansion.
  | Analytical far-field extrapolation by fixed multipoles:
  | Hartree multipole sum: apparent total charge =  -0.256835E-07
  Summing up the Hartree potential.
  Time summed over all CPUs for potential: real work        0.118 s, elapsed        0.127 s
  | RMS charge density error from multipole expansion :   0.118807E-03

  Integrating Hamiltonian matrix: batch-based integration.
  Time summed over all CPUs for integration: real work        0.171 s, elapsed        0.179 s

  Updating Kohn-Sham eigenvalues, eigenvectors, occupation numbers, and Fermi level.
  Solving generalized eigenproblem
  Updating Kohn-Sham eigenvalues and eigenfunctions.
  Solving real generalised eigenvalue problem by standard LAPACK (fast)
  Determining occupation numbers for Kohn-Sham eigenstates.
  | Chemical potential (Fermi level) in eV                 : -.56999426E+01
  | Error in electron count due to remaining E_F inaccuracy: -.46878057E-11
  | Maximum occupation number of highest empty state:  0.00E+00

  Writing Kohn-Sham eigenvalues.

  State    Occupation    Eigenvalue [Ha]    Eigenvalue [eV]
      1       2.00000         -18.925369         -514.98549
      2       2.00000         -18.925158         -514.97974
      3       2.00000          -1.269380          -34.54159
      4       2.00000          -0.732855          -19.94200
      5       2.00000          -0.525353          -14.29559
      6       2.00000          -0.516031          -14.04191
      7       2.00000          -0.516031          -14.04191
      8       1.00000          -0.209469           -5.69994
      9       1.00000          -0.209469           -5.69994
     10       0.00000           0.092749            2.52382
     11       0.00000           0.098475            2.67964
     12       0.00000           0.129557            3.52543
     13       0.00000           0.129557            3.52543
     14       0.00000           0.204501            5.56475

  Highest occupied state (VBM) at     -5.69994258 eV
  | Occupation number:      1.00000000

  Lowest unoccupied state (CBM) at    -5.69994258 eV
  | Occupation number:      1.00000000

  Overall HOMO-LUMO gap:      0.00000000 eV.

  Total energy components:
  | Sum of eigenvalues            :         -83.23928992 Ha       -2265.05632348 eV
  | XC energy correction          :         -16.85459748 Ha        -458.63693269 eV
  | XC potential correction       :          21.67123148 Ha         589.70421251 eV
  | Free-atom electrostatic energy:         -71.52331217 Ha       -1946.24834828 eV
  | Hartree energy correction     :          -0.26113791 Ha          -7.10592404 eV
  | Entropy correction            :          -0.00020734 Ha          -0.00564190 eV
  | ---------------------------
  | Total energy                  :        -150.20710600 Ha       -4087.34331597 eV
  | Total energy, T -> 0          :        -150.20731333 Ha       -4087.34895787 eV  <-- do not rely on this value for anything but (periodic) metals
  | Electronic free energy        :        -150.20752067 Ha       -4087.35459977 eV

  Derived energy quantities:
  | Kinetic energy                :         150.11614439 Ha        4084.86812472 eV
  | Electrostatic energy          :        -283.46865291 Ha       -7713.57450800 eV
  | Energy correction for multipole
  | error in Hartree potential    :          -0.00014987 Ha          -0.00407828 eV
  | Sum of eigenvalues per atom                           :       -1132.52816174 eV
  | Total energy (T->0) per atom                          :       -2043.67447894 eV  <-- do not rely on this value for anything but (periodic) metals
  | Electronic free energy per atom                       :       -2043.67729988 eV

  Self-consistency convergence accuracy:
  | Change of charge density      :  0.1773E+00
  | Change of sum of eigenvalues  :  0.6984E+01 eV
  | Change of total energy        :  0.1726E+00 eV

  End self-consistency iteration #     1       :  max(cpu_time)    wall_clock(cpu1)
  | Time for this iteration                    :        0.070 s           0.069 s
  | Charge density update                      :        0.018 s           0.017 s
  | Density mixing                             :        0.001 s           0.001 s
  | Hartree multipole update                   :        0.005 s           0.004 s
  | Hartree multipole summation                :        0.018 s           0.018 s
  | Integration                                :        0.023 s           0.022 s
  | Solution of K.-S. eqns.                    :        0.001 s           0.002 s
  | Total energy evaluation                    :        0.000 s           0.002 s
------------------------------------------------------------

------------------------------------------------------------
          Begin self-consistency iteration #    2

  Date     :  20190722, Time     :  143507.355
------------------------------------------------------------
  Evaluating new KS density.
  Integration grid: deviation in total charge (<rho> - N_e) =  -4.757084E-12
  Pulay mixing of updated and previous charge densities.

  Evaluating partitioned Hartree potential by multipole expansion.
  | Analytical far-field extrapolation by fixed multipoles:
  | Hartree multipole sum: apparent total charge =  -0.470528E-07
  Summing up the Hartree potential.
  Time summed over all CPUs for potential: real work        0.114 s, elapsed        0.121 s
  | RMS charge density error from multipole expansion :   0.434819E-03

  Integrating Hamiltonian matrix: batch-based integration.
  Time summed over all CPUs for integration: real work        0.170 s, elapsed        0.176 s

  Updating Kohn-Sham eigenvalues, eigenvectors, occupation numbers, and Fermi level.
  Solving generalized eigenproblem
  Updating Kohn-Sham eigenvalues and eigenfunctions.
  Solving real generalised eigenvalue problem by standard LAPACK (fast)
  Determining occupation numbers for Kohn-Sham eigenstates.
  | Chemical potential (Fermi level) in eV                 : -.49828728E+01
  | Error in electron count due to remaining E_F inaccuracy: -.85265128E-13
  | Maximum occupation number of highest empty state:  0.00E+00

  Highest occupied state (VBM) at     -4.98287277 eV
  | Occupation number:      1.00000000

  Lowest unoccupied state (CBM) at    -4.98287277 eV
  | Occupation number:      1.00000000

  Overall HOMO-LUMO gap:      0.00000000 eV.

  Total energy components:
  | Sum of eigenvalues            :         -82.74087041 Ha       -2251.49363852 eV
  | XC energy correction          :         -16.92827285 Ha        -460.64174140 eV
  | XC potential correction       :          21.76715812 Ha         592.31450911 eV
  | Free-atom electrostatic energy:         -71.52331217 Ha       -1946.24834828 eV
  | Hartree energy correction     :          -0.77680845 Ha         -21.13803331 eV
  | Entropy correction            :          -0.00020734 Ha          -0.00564190 eV
  | ---------------------------
  | Total energy                  :        -150.20210575 Ha       -4087.20725240 eV
  | Total energy, T -> 0          :        -150.20231309 Ha       -4087.21289429 eV  <-- do not rely on this value for anything but (periodic) metals
  | Electronic free energy        :        -150.20252043 Ha       -4087.21853619 eV

  Derived energy quantities:
  | Kinetic energy                :         150.44378682 Ha        4093.78372889 eV
  | Electrostatic energy          :        -283.71761973 Ha       -7720.34923989 eV
  | Energy correction for multipole
  | error in Hartree potential    :          -0.00049757 Ha          -0.01353944 eV
  | Sum of eigenvalues per atom                           :       -1125.74681926 eV
  | Total energy (T->0) per atom                          :       -2043.60644715 eV  <-- do not rely on this value for anything but (periodic) metals
  | Electronic free energy per atom                       :       -2043.60926810 eV

  Self-consistency convergence accuracy:
  | Change of charge density      :  0.1269E+00
  | Change of sum of eigenvalues  :  0.1356E+02 eV
  | Change of total energy        :  0.1361E+00 eV

  End self-consistency iteration #     2       :  max(cpu_time)    wall_clock(cpu1)
  | Time for this iteration                    :        0.063 s           0.062 s
  | Charge density update                      :        0.016 s           0.016 s
  | Density mixing                             :        0.002 s           0.002 s
  | Hartree multipole update                   :        0.004 s           0.003 s
  | Hartree multipole summation                :        0.017 s           0.017 s
  | Integration                                :        0.023 s           0.022 s
  | Solution of K.-S. eqns.                    :        0.001 s           0.001 s
  | Total energy evaluation                    :        0.001 s           0.001 s
------------------------------------------------------------

------------------------------------------------------------
          Begin self-consistency iteration #    3

  Date     :  20190722, Time     :  143507.420
------------------------------------------------------------
  Evaluating new KS density.
  Integration grid: deviation in total charge (<rho> - N_e) =   3.552714E-14
  Pulay mixing of updated and previous charge densities.

  Evaluating partitioned Hartree potential by multipole expansion.
  | Analytical far-field extrapolation by fixed multipoles:
  | Hartree multipole sum: apparent total charge =  -0.107491E-06
  Summing up the Hartree potential.
  Time summed over all CPUs for potential: real work        0.114 s, elapsed        0.121 s
  | RMS charge density error from multipole expansion :   0.600035E-03

  Integrating Hamiltonian matrix: batch-based integration.
  Time summed over all CPUs for integration: real work        0.171 s, elapsed        0.176 s

  Updating Kohn-Sham eigenvalues, eigenvectors, occupation numbers, and Fermi level.
  Solving generalized eigenproblem
  Updating Kohn-Sham eigenvalues and eigenfunctions.
  Solving real generalised eigenvalue problem by standard LAPACK (fast)
  Determining occupation numbers for Kohn-Sham eigenstates.
  | Chemical potential (Fermi level) in eV                 : -.51626414E+01
  | Error in electron count due to remaining E_F inaccuracy: 0.00000000E+00
  | Maximum occupation number of highest empty state:  0.00E+00

  Highest occupied state (VBM) at     -5.16264136 eV
  | Occupation number:      1.00000005

  Lowest unoccupied state (CBM) at    -5.16264136 eV
  | Occupation number:      0.99999995

  Overall HOMO-LUMO gap:      0.00000000 eV.

  Total energy components:
  | Sum of eigenvalues            :         -82.90510949 Ha       -2255.96281125 eV
  | XC energy correction          :         -16.90923161 Ha        -460.12360293 eV
  | XC potential correction       :          21.74213346 Ha         591.63355336 eV
  | Free-atom electrostatic energy:         -71.52331217 Ha       -1946.24834828 eV
  | Hartree energy correction     :          -0.60652618 Ha         -16.50441715 eV
  | Entropy correction            :          -0.00020734 Ha          -0.00564190 eV
  | ---------------------------
  | Total energy                  :        -150.20204600 Ha       -4087.20562626 eV
  | Total energy, T -> 0          :        -150.20225333 Ha       -4087.21126815 eV  <-- do not rely on this value for anything but (periodic) metals
  | Electronic free energy        :        -150.20246067 Ha       -4087.21691005 eV

  Derived energy quantities:
  | Kinetic energy                :         150.17864204 Ha        4086.56877223 eV
  | Electrostatic energy          :        -283.47145642 Ha       -7713.65079555 eV
  | Energy correction for multipole
  | error in Hartree potential    :          -0.00055643 Ha          -0.01514115 eV
  | Sum of eigenvalues per atom                           :       -1127.98140562 eV
  | Total energy (T->0) per atom                          :       -2043.60563408 eV  <-- do not rely on this value for anything but (periodic) metals
  | Electronic free energy per atom                       :       -2043.60845502 eV

  Self-consistency convergence accuracy:
  | Change of charge density      :  0.3284E-01
  | Change of sum of eigenvalues  : -0.4469E+01 eV
  | Change of total energy        :  0.1626E-02 eV

  End self-consistency iteration #     3       :  max(cpu_time)    wall_clock(cpu1)
  | Time for this iteration                    :        0.062 s           0.061 s
  | Charge density update                      :        0.016 s           0.015 s
  | Density mixing                             :        0.001 s           0.002 s
  | Hartree multipole update                   :        0.004 s           0.003 s
  | Hartree multipole summation                :        0.016 s           0.016 s
  | Integration                                :        0.023 s           0.023 s
  | Solution of K.-S. eqns.                    :        0.001 s           0.001 s
  | Total energy evaluation                    :        0.000 s           0.001 s
------------------------------------------------------------

------------------------------------------------------------
          Begin self-consistency iteration #    4

  Date     :  20190722, Time     :  143507.483
------------------------------------------------------------
  Evaluating new KS density.
  Integration grid: deviation in total charge (<rho> - N_e) =  -1.545430E-13
  Pulay mixing of updated and previous charge densities.

  Evaluating partitioned Hartree potential by multipole expansion.
  | Analytical far-field extrapolation by fixed multipoles:
  | Hartree multipole sum: apparent total charge =  -0.106620E-06
  Summing up the Hartree potential.
  Time summed over all CPUs for potential: real work        0.114 s, elapsed        0.120 s
  | RMS charge density error from multipole expansion :   0.632912E-03

  Integrating Hamiltonian matrix: batch-based integration.
  Time summed over all CPUs for integration: real work        0.171 s, elapsed        0.177 s

  Updating Kohn-Sham eigenvalues, eigenvectors, occupation numbers, and Fermi level.
  Solving generalized eigenproblem
  Updating Kohn-Sham eigenvalues and eigenfunctions.
  Solving real generalised eigenvalue problem by standard LAPACK (fast)
  Determining occupation numbers for Kohn-Sham eigenstates.
  | Chemical potential (Fermi level) in eV                 : -.50682901E+01
  | Error in electron count due to remaining E_F inaccuracy: -.89339203E-09
  | Maximum occupation number of highest empty state:  0.00E+00

  Highest occupied state (VBM) at     -5.06829012 eV
  | Occupation number:      1.00000187

  Lowest unoccupied state (CBM) at    -5.06829009 eV
  | Occupation number:      0.99999813

  Overall HOMO-LUMO gap:      0.00000003 eV.

  Total energy components:
  | Sum of eigenvalues            :         -82.83359780 Ha       -2254.01687922 eV
  | XC energy correction          :         -16.91747119 Ha        -460.34781336 eV
  | XC potential correction       :          21.75289323 Ha         591.92634162 eV
  | Free-atom electrostatic energy:         -71.52331217 Ha       -1946.24834828 eV
  | Hartree energy correction     :          -0.68054168 Ha         -18.51848123 eV
  | Entropy correction            :          -0.00020734 Ha          -0.00564190 eV
  | ---------------------------
  | Total energy                  :        -150.20202961 Ha       -4087.20518046 eV
  | Total energy, T -> 0          :        -150.20223695 Ha       -4087.21082236 eV  <-- do not rely on this value for anything but (periodic) metals
  | Electronic free energy        :        -150.20244428 Ha       -4087.21646426 eV

  Derived energy quantities:
  | Kinetic energy                :         150.22744957 Ha        4087.89689268 eV
  | Electrostatic energy          :        -283.51200799 Ha       -7714.75425979 eV
  | Energy correction for multipole
  | error in Hartree potential    :          -0.00059041 Ha          -0.01606580 eV
  | Sum of eigenvalues per atom                           :       -1127.00843961 eV
  | Total energy (T->0) per atom                          :       -2043.60541118 eV  <-- do not rely on this value for anything but (periodic) metals
  | Electronic free energy per atom                       :       -2043.60823213 eV

  Self-consistency convergence accuracy:
  | Change of charge density      :  0.7491E-02
  | Change of sum of eigenvalues  :  0.1946E+01 eV
  | Change of total energy        :  0.4458E-03 eV

  End self-consistency iteration #     4       :  max(cpu_time)    wall_clock(cpu1)
  | Time for this iteration                    :        0.061 s           0.061 s
  | Charge density update                      :        0.016 s           0.016 s
  | Density mixing                             :        0.001 s           0.001 s
  | Hartree multipole update                   :        0.004 s           0.003 s
  | Hartree multipole summation                :        0.016 s           0.016 s
  | Integration                                :        0.023 s           0.023 s
  | Solution of K.-S. eqns.                    :        0.001 s           0.001 s
  | Total energy evaluation                    :        0.000 s           0.001 s
------------------------------------------------------------

------------------------------------------------------------
          Begin self-consistency iteration #    5

  Date     :  20190722, Time     :  143507.546
------------------------------------------------------------
  Evaluating new KS density.
  Integration grid: deviation in total charge (<rho> - N_e) =  -8.934471E-10
  Pulay mixing of updated and previous charge densities.

  Evaluating partitioned Hartree potential by multipole expansion.
  | Analytical far-field extrapolation by fixed multipoles:
  | Hartree multipole sum: apparent total charge =  -0.107162E-06
  Summing up the Hartree potential.
  Time summed over all CPUs for potential: real work        0.113 s, elapsed        0.120 s
  | RMS charge density error from multipole expansion :   0.640203E-03

  Integrating Hamiltonian matrix: batch-based integration.
  Time summed over all CPUs for integration: real work        0.170 s, elapsed        0.178 s

  Updating Kohn-Sham eigenvalues, eigenvectors, occupation numbers, and Fermi level.
  Solving generalized eigenproblem
  Updating Kohn-Sham eigenvalues and eigenfunctions.
  Solving real generalised eigenvalue problem by standard LAPACK (fast)
  Determining occupation numbers for Kohn-Sham eigenstates.
  | Chemical potential (Fermi level) in eV                 : -.51066366E+01
  | Error in electron count due to remaining E_F inaccuracy: 0.00000000E+00
  | Maximum occupation number of highest empty state:  0.00E+00

  Highest occupied state (VBM) at     -5.10663675 eV
  | Occupation number:      1.00002275

  Lowest unoccupied state (CBM) at    -5.10663635 eV
  | Occupation number:      0.99997725

  Overall HOMO-LUMO gap:      0.00000040 eV.

  Total energy components:
  | Sum of eigenvalues            :         -82.86357080 Ha       -2254.83248609 eV
  | XC energy correction          :         -16.91330664 Ha        -460.23449025 eV
  | XC potential correction       :          21.74745038 Ha         591.77823418 eV
  | Free-atom electrostatic energy:         -71.52331217 Ha       -1946.24834828 eV
  | Hartree energy correction     :          -0.64927813 Ha         -17.66775673 eV
  | Entropy correction            :          -0.00020734 Ha          -0.00564190 eV
  | ---------------------------
  | Total energy                  :        -150.20201736 Ha       -4087.20484718 eV
  | Total energy, T -> 0          :        -150.20222470 Ha       -4087.21048908 eV  <-- do not rely on this value for anything but (periodic) metals
  | Electronic free energy        :        -150.20243204 Ha       -4087.21613097 eV

  Derived energy quantities:
  | Kinetic energy                :         150.19350179 Ha        4086.97312654 eV
  | Electrostatic energy          :        -283.48221251 Ha       -7713.94348346 eV
  | Energy correction for multipole
  | error in Hartree potential    :          -0.00058565 Ha          -0.01593628 eV
  | Sum of eigenvalues per atom                           :       -1127.41624305 eV
  | Total energy (T->0) per atom                          :       -2043.60524454 eV  <-- do not rely on this value for anything but (periodic) metals
  | Electronic free energy per atom                       :       -2043.60806549 eV

  Self-consistency convergence accuracy:
  | Change of charge density      :  0.4827E-02
  | Change of sum of eigenvalues  : -0.8156E+00 eV
  | Change of total energy        :  0.3333E-03 eV

  End self-consistency iteration #     5       :  max(cpu_time)    wall_clock(cpu1)
  | Time for this iteration                    :        0.062 s           0.062 s
  | Charge density update                      :        0.016 s           0.016 s
  | Density mixing                             :        0.001 s           0.002 s
  | Hartree multipole update                   :        0.004 s           0.003 s
  | Hartree multipole summation                :        0.016 s           0.016 s
  | Integration                                :        0.023 s           0.022 s
  | Solution of K.-S. eqns.                    :        0.001 s           0.002 s
  | Total energy evaluation                    :        0.001 s           0.001 s
------------------------------------------------------------

------------------------------------------------------------
          Begin self-consistency iteration #    6

  Date     :  20190722, Time     :  143507.611
------------------------------------------------------------
  Evaluating new KS density.
  Integration grid: deviation in total charge (<rho> - N_e) =  -9.947598E-14
  Pulay mixing of updated and previous charge densities.

  Evaluating partitioned Hartree potential by multipole expansion.
  | Analytical far-field extrapolation by fixed multipoles:
  | Hartree multipole sum: apparent total charge =  -0.105724E-06
  Summing up the Hartree potential.
  Time summed over all CPUs for potential: real work        0.116 s, elapsed        0.120 s
  | RMS charge density error from multipole expansion :   0.641487E-03

  Integrating Hamiltonian matrix: batch-based integration.
  Time summed over all CPUs for integration: real work        0.170 s, elapsed        0.177 s

  Updating Kohn-Sham eigenvalues, eigenvectors, occupation numbers, and Fermi level.
  Solving generalized eigenproblem
  Updating Kohn-Sham eigenvalues and eigenfunctions.
  Solving real generalised eigenvalue problem by standard LAPACK (fast)
  Determining occupation numbers for Kohn-Sham eigenstates.
  | Chemical potential (Fermi level) in eV                 : -.51088634E+01
  | Error in electron count due to remaining E_F inaccuracy: 0.17053026E-12
  | Maximum occupation number of highest empty state:  0.00E+00

  Highest occupied state (VBM) at     -5.10887536 eV
  | Occupation number:      1.00134512

  Lowest unoccupied state (CBM) at    -5.10885152 eV
  | Occupation number:      0.99865488

  Overall HOMO-LUMO gap:      0.00002384 eV.

  Total energy components:
  | Sum of eigenvalues            :         -82.86488199 Ha       -2254.86816526 eV
  | XC energy correction          :         -16.91325394 Ha        -460.23305603 eV
  | XC potential correction       :          21.74737277 Ha         591.77612221 eV
  | Free-atom electrostatic energy:         -71.52331217 Ha       -1946.24834828 eV
  | Hartree energy correction     :          -0.64794202 Ha         -17.63139931 eV
  | Entropy correction            :          -0.00020734 Ha          -0.00564189 eV
  | ---------------------------
  | Total energy                  :        -150.20201735 Ha       -4087.20484667 eV
  | Total energy, T -> 0          :        -150.20222468 Ha       -4087.21048855 eV  <-- do not rely on this value for anything but (periodic) metals
  | Electronic free energy        :        -150.20243202 Ha       -4087.21613044 eV

  Derived energy quantities:
  | Kinetic energy                :         150.19536654 Ha        4087.02386917 eV
  | Electrostatic energy          :        -283.48412995 Ha       -7713.99565981 eV
  | Energy correction for multipole
  | error in Hartree potential    :          -0.00058627 Ha          -0.01595334 eV
  | Sum of eigenvalues per atom                           :       -1127.43408263 eV
  | Total energy (T->0) per atom                          :       -2043.60524428 eV  <-- do not rely on this value for anything but (periodic) metals
  | Electronic free energy per atom                       :       -2043.60806522 eV

  Self-consistency convergence accuracy:
  | Change of charge density      :  0.2636E-03
  | Change of sum of eigenvalues  : -0.3568E-01 eV
  | Change of total energy        :  0.5126E-06 eV

  End self-consistency iteration #     6       :  max(cpu_time)    wall_clock(cpu1)
  | Time for this iteration                    :        0.062 s           0.061 s
  | Charge density update                      :        0.016 s           0.015 s
  | Density mixing                             :        0.001 s           0.001 s
  | Hartree multipole update                   :        0.004 s           0.004 s
  | Hartree multipole summation                :        0.016 s           0.016 s
  | Integration                                :        0.023 s           0.022 s
  | Solution of K.-S. eqns.                    :        0.001 s           0.002 s
  | Total energy evaluation                    :        0.000 s           0.001 s
------------------------------------------------------------

------------------------------------------------------------
          Begin self-consistency iteration #    7

  Date     :  20190722, Time     :  143507.675
------------------------------------------------------------
  Evaluating new KS density.
  Integration grid: deviation in total charge (<rho> - N_e) =   3.126388E-13
  Pulay mixing of updated and previous charge densities.

  Evaluating partitioned Hartree potential by multipole expansion.
  | Analytical far-field extrapolation by fixed multipoles:
  | Hartree multipole sum: apparent total charge =  -0.105705E-06
  Summing up the Hartree potential.
  Time summed over all CPUs for potential: real work        0.114 s, elapsed        0.121 s
  | RMS charge density error from multipole expansion :   0.641504E-03

  Integrating Hamiltonian matrix: batch-based integration.
  Time summed over all CPUs for integration: real work        0.171 s, elapsed        0.177 s

  Updating Kohn-Sham eigenvalues, eigenvectors, occupation numbers, and Fermi level.
  Solving generalized eigenproblem
  Updating Kohn-Sham eigenvalues and eigenfunctions.
  Solving real generalised eigenvalue problem by standard LAPACK (fast)
  Determining occupation numbers for Kohn-Sham eigenstates.
  | Chemical potential (Fermi level) in eV                 : -.51088827E+01
  | Error in electron count due to remaining E_F inaccuracy: 0.34106051E-12
  | Maximum occupation number of highest empty state:  0.00E+00

  Highest occupied state (VBM) at     -5.10888281 eV
  | Occupation number:      1.00000742

  Lowest unoccupied state (CBM) at    -5.10888268 eV
  | Occupation number:      0.99999258

  Overall HOMO-LUMO gap:      0.00000013 eV.

  Total energy components:
  | Sum of eigenvalues            :         -82.86489138 Ha       -2254.86842095 eV
  | XC energy correction          :         -16.91325402 Ha        -460.23305826 eV
  | XC potential correction       :          21.74737277 Ha         591.77612221 eV
  | Free-atom electrostatic energy:         -71.52331217 Ha       -1946.24834828 eV
  | Hartree energy correction     :          -0.64793254 Ha         -17.63114135 eV
  | Entropy correction            :          -0.00020734 Ha          -0.00564190 eV
  | ---------------------------
  | Total energy                  :        -150.20201734 Ha       -4087.20484663 eV
  | Total energy, T -> 0          :        -150.20222468 Ha       -4087.21048853 eV  <-- do not rely on this value for anything but (periodic) metals
  | Electronic free energy        :        -150.20243202 Ha       -4087.21613042 eV

  Derived energy quantities:
  | Kinetic energy                :         150.19539685 Ha        4087.02469388 eV
  | Electrostatic energy          :        -283.48416018 Ha       -7713.99648225 eV
  | Energy correction for multipole
  | error in Hartree potential    :          -0.00058628 Ha          -0.01595358 eV
  | Sum of eigenvalues per atom                           :       -1127.43421048 eV
  | Total energy (T->0) per atom                          :       -2043.60524426 eV  <-- do not rely on this value for anything but (periodic) metals
  | Electronic free energy per atom                       :       -2043.60806521 eV

  Self-consistency convergence accuracy:
  | Change of charge density      :  0.4198E-03
  | Change of sum of eigenvalues  : -0.2557E-03 eV
  | Change of total energy        :  0.3636E-07 eV

  End self-consistency iteration #     7       :  max(cpu_time)    wall_clock(cpu1)
  | Time for this iteration                    :        0.065 s           0.064 s
  | Charge density update                      :        0.017 s           0.016 s
  | Density mixing                             :        0.002 s           0.001 s
  | Hartree multipole update                   :        0.004 s           0.004 s
  | Hartree multipole summation                :        0.016 s           0.016 s
  | Integration                                :        0.023 s           0.023 s
  | Solution of K.-S. eqns.                    :        0.001 s           0.001 s
  | Total energy evaluation                    :        0.001 s           0.002 s
------------------------------------------------------------

------------------------------------------------------------
          Begin self-consistency iteration #    8

  Date     :  20190722, Time     :  143507.742
------------------------------------------------------------
  Evaluating new KS density.
  Integration grid: deviation in total charge (<rho> - N_e) =   3.588241E-13
  Pulay mixing of updated and previous charge densities.

  Evaluating partitioned Hartree potential by multipole expansion.
  | Analytical far-field extrapolation by fixed multipoles:
  | Hartree multipole sum: apparent total charge =  -0.105716E-06
  Summing up the Hartree potential.
  Time summed over all CPUs for potential: real work        0.115 s, elapsed        0.121 s
  | RMS charge density error from multipole expansion :   0.641493E-03

  Integrating Hamiltonian matrix: batch-based integration.
  Time summed over all CPUs for integration: real work        0.170 s, elapsed        0.177 s

  Updating Kohn-Sham eigenvalues, eigenvectors, occupation numbers, and Fermi level.
  Solving generalized eigenproblem
  Updating Kohn-Sham eigenvalues and eigenfunctions.
  Solving real generalised eigenvalue problem by standard LAPACK (fast)
  Determining occupation numbers for Kohn-Sham eigenstates.
  | Chemical potential (Fermi level) in eV                 : -.51087596E+01
  | Error in electron count due to remaining E_F inaccuracy: 0.85265128E-13
  | Maximum occupation number of highest empty state:  0.00E+00

  Highest occupied state (VBM) at     -5.10875962 eV
  | Occupation number:      1.00000004

  Lowest unoccupied state (CBM) at    -5.10875962 eV
  | Occupation number:      0.99999996

  Overall HOMO-LUMO gap:      0.00000000 eV.

  Total energy components:
  | Sum of eigenvalues            :         -82.86479702 Ha       -2254.86585319 eV
  | XC energy correction          :         -16.91326291 Ha        -460.23330011 eV
  | XC potential correction       :          21.74738452 Ha         591.77644197 eV
  | Free-atom electrostatic energy:         -71.52331217 Ha       -1946.24834828 eV
  | Hartree energy correction     :          -0.64802976 Ha         -17.63378701 eV
  | Entropy correction            :          -0.00020734 Ha          -0.00564190 eV
  | ---------------------------
  | Total energy                  :        -150.20201734 Ha       -4087.20484663 eV
  | Total energy, T -> 0          :        -150.20222468 Ha       -4087.21048853 eV  <-- do not rely on this value for anything but (periodic) metals
  | Electronic free energy        :        -150.20243202 Ha       -4087.21613042 eV

  Derived energy quantities:
  | Kinetic energy                :         150.19545063 Ha        4087.02615724 eV
  | Electrostatic energy          :        -283.48420507 Ha       -7713.99770376 eV
  | Energy correction for multipole
  | error in Hartree potential    :          -0.00058629 Ha          -0.01595372 eV
  | Sum of eigenvalues per atom                           :       -1127.43292660 eV
  | Total energy (T->0) per atom                          :       -2043.60524426 eV  <-- do not rely on this value for anything but (periodic) metals
  | Electronic free energy per atom                       :       -2043.60806521 eV

  Self-consistency convergence accuracy:
  | Change of charge density      :  0.1316E-04
  | Change of sum of eigenvalues  :  0.2568E-02 eV
  | Change of total energy        :  0.1217E-08 eV

  Electronic self-consistency reached - switching on the force computation.

  End self-consistency iteration #     8       :  max(cpu_time)    wall_clock(cpu1)
  | Time for this iteration                    :        0.063 s           0.062 s
  | Charge density & force component update    :        0.016 s           0.015 s
  | Density mixing                             :        0.002 s           0.003 s
  | Hartree multipole update                   :        0.003 s           0.003 s
  | Hartree multipole summation                :        0.016 s           0.016 s
  | Integration                                :        0.023 s           0.023 s
  | Solution of K.-S. eqns.                    :        0.001 s           0.001 s
  | Total energy evaluation                    :        0.000 s           0.001 s
------------------------------------------------------------

------------------------------------------------------------
          Begin self-consistency iteration #    9

  Date     :  20190722, Time     :  143507.807
------------------------------------------------------------
  Evaluating new KS density.
  Integration grid: deviation in total charge (<rho> - N_e) =   1.598721E-13
  Pulay mixing of updated and previous charge densities.

  Evaluating partitioned Hartree potential by multipole expansion.
  | Analytical far-field extrapolation by fixed multipoles:
  | Hartree multipole sum: apparent total charge =  -0.105725E-06
  Summing up the Hartree potential.
  Time summed over all CPUs for potential: real work        0.297 s, elapsed        0.312 s
  | RMS charge density error from multipole expansion :   0.641538E-03

  Integrating Hamiltonian matrix: batch-based integration.
  Time summed over all CPUs for integration: real work        0.170 s, elapsed        0.177 s

  Updating Kohn-Sham eigenvalues, eigenvectors, occupation numbers, and Fermi level.
  Solving generalized eigenproblem
  Updating Kohn-Sham eigenvalues and eigenfunctions.
  Solving real generalised eigenvalue problem by standard LAPACK (fast)
  Determining occupation numbers for Kohn-Sham eigenstates.
  | Chemical potential (Fermi level) in eV                 : -.51087362E+01
  | Error in electron count due to remaining E_F inaccuracy: 0.00000000E+00
  | Maximum occupation number of highest empty state:  0.00E+00

  Highest occupied state (VBM) at     -5.10873618 eV
  | Occupation number:      1.00000001

  Lowest unoccupied state (CBM) at    -5.10873618 eV
  | Occupation number:      0.99999999

  Overall HOMO-LUMO gap:      0.00000000 eV.

  Total energy components:
  | Sum of eigenvalues            :         -82.86478303 Ha       -2254.86547244 eV
  | XC energy correction          :         -16.91326425 Ha        -460.23333662 eV
  | XC potential correction       :          21.74738627 Ha         591.77648959 eV
  | Free-atom electrostatic energy:         -71.52331217 Ha       -1946.24834828 eV
  | Hartree energy correction     :          -0.64804416 Ha         -17.63417889 eV
  | Entropy correction            :          -0.00020734 Ha          -0.00564190 eV
  | ---------------------------
  | Total energy                  :        -150.20201734 Ha       -4087.20484664 eV
  | Total energy, T -> 0          :        -150.20222468 Ha       -4087.21048853 eV  <-- do not rely on this value for anything but (periodic) metals
  | Electronic free energy        :        -150.20243202 Ha       -4087.21613043 eV

  Derived energy quantities:
  | Kinetic energy                :         150.19544174 Ha        4087.02591536 eV
  | Electrostatic energy          :        -283.48419484 Ha       -7713.99742538 eV
  | Energy correction for multipole
  | error in Hartree potential    :          -0.00058630 Ha          -0.01595405 eV
  | Sum of eigenvalues per atom                           :       -1127.43273622 eV
  | Total energy (T->0) per atom                          :       -2043.60524427 eV  <-- do not rely on this value for anything but (periodic) metals
  | Electronic free energy per atom                       :       -2043.60806521 eV

  atomic forces [eV/Ang]:
  -----------------------
  atom #    1
   Hellmann-Feynman              : -0.259143E-12  0.508736E-10 -0.243150E+02
   Ionic forces                  :  0.000000E+00  0.000000E+00  0.000000E+00
   Multipole                     : -0.143008E-12  0.528069E-12  0.439689E-01
   Pulay + GGA                   :  0.000000E+00  0.000000E+00  0.000000E+00
   ----------------------------------------------------------------
   Total forces(   1)            : -0.402151E-12  0.514016E-10 -0.242710E+02
  atom #    2
   Hellmann-Feynman              :  0.759946E-10 -0.863457E-11  0.243150E+02
   Ionic forces                  :  0.000000E+00  0.000000E+00  0.000000E+00
   Multipole                     : -0.267895E-12 -0.291833E-12 -0.439689E-01
   Pulay + GGA                   :  0.000000E+00  0.000000E+00  0.000000E+00
   ----------------------------------------------------------------
   Total forces(   2)            :  0.757267E-10 -0.892640E-11  0.242710E+02


  Self-consistency convergence accuracy:
  | Change of charge density      :  0.4464E-05
  | Change of sum of eigenvalues  :  0.3808E-03 eV
  | Change of total energy        : -0.6995E-08 eV
  | Change of forces              :  0.2427E+02 eV/A

  End self-consistency iteration #     9       :  max(cpu_time)    wall_clock(cpu1)
  | Time for this iteration                    :        0.087 s           0.087 s
  | Charge density & force component update    :        0.016 s           0.015 s
  | Density mixing                             :        0.002 s           0.003 s
  | Hartree multipole update                   :        0.003 s           0.003 s
  | Hartree multipole summation                :        0.040 s           0.040 s
  | Integration                                :        0.023 s           0.022 s
  | Solution of K.-S. eqns.                    :        0.001 s           0.002 s
  | Total energy evaluation                    :        0.001 s           0.001 s
------------------------------------------------------------

------------------------------------------------------------
          Begin self-consistency iteration #   10

  Date     :  20190722, Time     :  143507.896
------------------------------------------------------------
  Evaluating new KS density and force components.
  Integration grid: deviation in total charge (<rho> - N_e) =  -1.652012E-13
  Pulay mixing of updated and previous charge densities.

  Evaluating partitioned Hartree potential by multipole expansion.
  | Analytical far-field extrapolation by fixed multipoles:
  | Hartree multipole sum: apparent total charge =  -0.105725E-06
  Summing up the Hartree potential.
  Time summed over all CPUs for potential: real work        0.298 s, elapsed        0.315 s
  | RMS charge density error from multipole expansion :   0.641538E-03

  Integrating Hamiltonian matrix: batch-based integration.
  Time summed over all CPUs for integration: real work        0.171 s, elapsed        0.177 s

  Updating Kohn-Sham eigenvalues, eigenvectors, occupation numbers, and Fermi level.
  Solving generalized eigenproblem
  Updating Kohn-Sham eigenvalues and eigenfunctions.
  Solving real generalised eigenvalue problem by standard LAPACK (fast)
  Determining occupation numbers for Kohn-Sham eigenstates.
  | Chemical potential (Fermi level) in eV                 : -.51087343E+01
  | Error in electron count due to remaining E_F inaccuracy: 0.00000000E+00
  | Maximum occupation number of highest empty state:  0.00E+00

  Highest occupied state (VBM) at     -5.10873430 eV
  | Occupation number:      1.00000036

  Lowest unoccupied state (CBM) at    -5.10873429 eV
  | Occupation number:      0.99999964

  Overall HOMO-LUMO gap:      0.00000001 eV.

  Total energy components:
  | Sum of eigenvalues            :         -82.86478140 Ha       -2254.86542820 eV
  | XC energy correction          :         -16.91326443 Ha        -460.23334143 eV
  | XC potential correction       :          21.74738650 Ha         591.77649589 eV
  | Free-atom electrostatic energy:         -71.52331217 Ha       -1946.24834828 eV
  | Hartree energy correction     :          -0.64804584 Ha         -17.63422462 eV
  | Entropy correction            :          -0.00020734 Ha          -0.00564190 eV
  | ---------------------------
  | Total energy                  :        -150.20201734 Ha       -4087.20484664 eV
  | Total energy, T -> 0          :        -150.20222468 Ha       -4087.21048853 eV  <-- do not rely on this value for anything but (periodic) metals
  | Electronic free energy        :        -150.20243202 Ha       -4087.21613043 eV

  Derived energy quantities:
  | Kinetic energy                :         150.19544261 Ha        4087.02593908 eV
  | Electrostatic energy          :        -283.48419553 Ha       -7713.99744429 eV
  | Energy correction for multipole
  | error in Hartree potential    :          -0.00058630 Ha          -0.01595408 eV
  | Sum of eigenvalues per atom                           :       -1127.43271410 eV
  | Total energy (T->0) per atom                          :       -2043.60524427 eV  <-- do not rely on this value for anything but (periodic) metals
  | Electronic free energy per atom                       :       -2043.60806521 eV

  atomic forces [eV/Ang]:
  -----------------------
  atom #    1
   Hellmann-Feynman              :  0.339272E-11 -0.623994E-10 -0.243149E+02
   Ionic forces                  :  0.000000E+00  0.000000E+00  0.000000E+00
   Multipole                     :  0.228445E-12 -0.597326E-12  0.439690E-01
   Pulay + GGA                   :  0.836653E-11 -0.803684E-11  0.149520E+02
   ----------------------------------------------------------------
   Total forces(   1)            :  0.119877E-10 -0.710336E-10 -0.931897E+01
  atom #    2
   Hellmann-Feynman              : -0.868285E-10  0.109342E-10  0.243149E+02
   Ionic forces                  :  0.000000E+00  0.000000E+00  0.000000E+00
   Multipole                     :  0.236238E-12  0.304753E-12 -0.439690E-01
   Pulay + GGA                   : -0.130957E-10  0.168701E-11 -0.149520E+02
   ----------------------------------------------------------------
   Total forces(   2)            : -0.996880E-10  0.129259E-10  0.931897E+01


  Self-consistency convergence accuracy:
  | Change of charge density      :  0.2734E-06
  | Change of sum of eigenvalues  :  0.4424E-04 eV
  | Change of total energy        : -0.1609E-09 eV
  | Change of forces              :  0.7261E-04 eV/A

  Writing Kohn-Sham eigenvalues.

  State    Occupation    Eigenvalue [Ha]    Eigenvalue [eV]
      1       2.00000         -18.890116         -514.02622
      2       2.00000         -18.889903         -514.02042
      3       2.00000          -1.264962          -34.42136
      4       2.00000          -0.702169          -19.10699
      5       2.00000          -0.501484          -13.64607
      6       2.00000          -0.501484          -13.64607
      7       2.00000          -0.494530          -13.45685
      8       1.00000          -0.187743           -5.10873
      9       1.00000          -0.187743           -5.10873
     10       0.00000           0.098767            2.68759
     11       0.00000           0.105011            2.85750
     12       0.00000           0.133245            3.62577
     13       0.00000           0.133245            3.62577
     14       0.00000           0.210368            5.72440

  Highest occupied state (VBM) at     -5.10873430 eV
  | Occupation number:      1.00000036

  Lowest unoccupied state (CBM) at    -5.10873429 eV
  | Occupation number:      0.99999964

  Overall HOMO-LUMO gap:      0.00000001 eV.

  Self-consistency cycle converged.

  End self-consistency iteration #    10       :  max(cpu_time)    wall_clock(cpu1)
  | Time for this iteration                    :        0.126 s           0.126 s
  | Charge density & force component update    :        0.054 s           0.053 s
  | Density mixing                             :        0.003 s           0.003 s
  | Hartree multipole update                   :        0.004 s           0.003 s
  | Hartree multipole summation                :        0.040 s           0.040 s
  | Integration                                :        0.023 s           0.023 s
  | Solution of K.-S. eqns.                    :        0.001 s           0.001 s
  | Total energy evaluation                    :        0.001 s           0.002 s
------------------------------------------------------------
  Writing cluster restart information to file restart
  ------------------------------------------------------------
   Computing monopole / dipole moments for complete molecule:
  | Total electronic charge [e]         :          0.159999999999999E+02
  | Total ionic charge [e]              :          0.160000000000000E+02
  | Total charge [e]                    :          0.799360577730113E-13
  | Total dipole moment [eAng]          :         -0.593453207965722E-13        -0.255050487719954E-13        -0.118440952086019E-12
  | Absolute dipole moment              :          0.134909724424715E-12 eAng              /                   0.647898032827119E-12 Debye  .
  Removing unitary transformations (pure translations, rotations) from forces on atoms.
  Atomic forces before filtering:
  | Net force on center of mass :  -0.877003E-10 -0.581076E-10  0.861716E-10 eV/A
  | Net torque on center of mass:  -0.472391E-10 -0.628333E-10  0.000000E+00 eV
  Atomic forces after filtering:
  | Net force on center of mass :  -0.259615E-25 -0.155769E-25  0.000000E+00 eV/A
  | Net torque on center of mass:   0.292140E-26  0.292140E-26  0.000000E+00 eV

  Energy and forces in a compact form:
  | Total energy uncorrected      :         -0.408720484663665E+04 eV
  | Total energy corrected        :         -0.408721048853236E+04 eV  <-- do not rely on this value for anything but (periodic) metals
  | Electronic free energy        :         -0.408721613042807E+04 eV
  Total atomic forces (unitary forces cleaned) [eV/Ang]:
  |   1         -0.155769047670269E-25         -0.519230158900898E-26         -0.931896993578248E+01
  |   2         -0.103846031780180E-25         -0.103846031780180E-25          0.931896993578248E+01

  ------------------------------------ 
  Start decomposition of the XC Energy 
  ------------------------------------ 
  Hartree-Fock part   :          0.000000000 Ha              0.000000000 eV
  ------------------------------------ 
  X Energy            :        -16.373125562 Ha           -445.535415148 eV
  C Energy GGA        :         -0.540138863 Ha            -14.697926285 eV
  Total XC Energy     :        -16.913264426 Ha           -460.233341433 eV
  LDA X and C from self-consistent density 
  X Energy LDA        :        -14.878321367 Ha           -404.859723425 eV
  C Energy LDA        :         -1.115922010 Ha            -30.365782898 eV
  ------------------------------------ 
  End decomposition of the XC Energy 
  ------------------------------------ 

------------------------------------------------------------------------------
  Final output of selected total energy values:

  The following output summarizes some interesting total energy values
  at the end of a run (AFTER all relaxation, molecular dynamics, etc.).

  | Total energy of the DFT / Hartree-Fock s.c.f. calculation      :          -4087.204846637 eV
  | Final zero-broadening corrected energy (caution - metals only) :          -4087.210488532 eV
  | For reference only, the value of 1 Hartree used in FHI-aims is :             27.211384500 eV

  Before relying on these values, please be sure to understand exactly which
  total energy value is referred to by a given number. Different objects may
  all carry the same name 'total energy'. Definitions:

  Total energy of the DFT / Hartree-Fock s.c.f. calculation:
  | Note that this energy does not include ANY quantities calculated after the
  | s.c.f. cycle, in particular not ANY RPA, MP2, etc. many-body perturbation terms.

  Final zero-broadening corrected energy:
  | For metallic systems only, a broadening of the occupation numbers at the Fermi
  | level can be extrapolated back to zero broadening by an electron-gas inspired
  | formula. For all systems that are not real metals, this value can be
  | meaningless and should be avoided.

------------------------------------------------------------------------------
  Methods described in the following list of references were used in this FHI-aims run.
  If you publish the results, please make sure to cite these reference if they apply.
  FHI-aims is an academic code, and for our developers (often, Ph.D. students
  and postdocs), scientific credit in the community is essential.
  Thank you for helping us!

  For any use of FHI-aims, please cite:

    Volker Blum, Ralf Gehrke, Felix Hanke, Paula Havu, Ville Havu,
    Xinguo Ren, Karsten Reuter, and Matthias Scheffler
    'Ab initio molecular simulations with numeric atom-centered orbitals'
    Computer Physics Communications 180, 2175-2196 (2009)
    http://dx.doi.org/10.1016/j.cpc.2009.06.022


  For the real-space grid partitioning and parallelization used in this calculation, please cite:

    Ville Havu, Volker Blum, Paula Havu, and Matthias Scheffler,
    'Efficient O(N) integration for all-electron electronic structure calculation'
    'using numerically tabulated basis functions'
    Journal of Computational Physics 228, 8367-8379 (2009).
    http://dx.doi.org/10.1016/j.jcp.2009.08.008

  Of course, there are many other important community references, e.g., those cited in the
  above references. Our list is limited to references that describe implementations in the
  FHI-aims code. The reason is purely practical (length of this list) - please credit others as well.

------------------------------------------------------------
          Leaving FHI-aims.
          Date     :  20190722, Time     :  143508.060

          Computational steps:
          | Number of self-consistency cycles          :           10

          Detailed time accounting                     :  max(cpu_time)    wall_clock(cpu1)
          | Total time                                 :        1.038 s           1.061 s
          | Preparation time                           :        0.157 s           0.165 s
          | Grid partitioning                          :        0.019 s           0.019 s
          | Preloading free-atom quantities on grid    :        0.018 s           0.018 s
          | Free-atom superposition energy             :        0.005 s           0.005 s
          | Total time for integrations                :        0.264 s           0.259 s
          | Total time for solution of K.-S. equations :        0.021 s           0.025 s
          | Total time for density & force components  :        0.201 s           0.194 s
          | Total time for mixing                      :        0.016 s           0.019 s
          | Total time for Hartree multipole update    :        0.039 s           0.033 s
          | Total time for Hartree multipole sum       :        0.211 s           0.211 s
          | Total time for total energy evaluation     :        0.006 s           0.015 s

          Have a nice day.
------------------------------------------------------------
