  MPI-parallelism will be employed.
------------------------------------------------------------
          Invoking FHI-aims ...
          Version 160328_3
          Compiled on 2019/06/10 at 14:55:49 on host taito-login3.csc.fi.

          When using FHI-aims, please cite the following reference:

          Volker Blum, Ralf Gehrke, Felix Hanke, Paula Havu,
          Ville Havu, Xinguo Ren, Karsten Reuter, and Matthias Scheffler,
          'Ab Initio Molecular Simulations with Numeric Atom-Centered Orbitals',
          Computer Physics Communications 180, 2175-2196 (2009)

          For any questions about FHI-aims, please visit the aimsclub website
          with its forums and wiki. Contributions to both the forums and the
          wiki are warmly encouraged - they are for you, and everyone is welcome there.

------------------------------------------------------------

  Date     :  20190722, Time     :  143612.680
  Time zero on CPU 1             :   0.709880000000000E-01  s.
  Internal wall clock time zero  :           333038172.680  s.

  Using        8 parallel tasks.
  Task        0 on host c674 reporting.
  Task        1 on host c674 reporting.
  Task        2 on host c674 reporting.
  Task        3 on host c674 reporting.
  Task        4 on host c674 reporting.
  Task        5 on host c674 reporting.
  Task        6 on host c674 reporting.
  Task        7 on host c674 reporting.

  Performing system and environment tests:
  | Environment variable OMP_NUM_THREADS correctly set to 1.
  | Maximum stacksize for task 0: unlimited
  | Maximum stacksize for task 1: unlimited
  | Maximum stacksize for task 2: unlimited
  | Maximum stacksize for task 3: unlimited
  | Maximum stacksize for task 4: unlimited
  | Maximum stacksize for task 5: unlimited
  | Maximum stacksize for task 6: unlimited
  | Maximum stacksize for task 7: unlimited
  | Current stacksize for task 0: 1024 [Mb]
  | Current stacksize for task 1: 1024 [Mb]
  | Current stacksize for task 2: 1024 [Mb]
  | Current stacksize for task 3: 1024 [Mb]
  | Current stacksize for task 4: 1024 [Mb]
  | Current stacksize for task 5: 1024 [Mb]
  | Current stacksize for task 6: 1024 [Mb]
  | Current stacksize for task 7: 1024 [Mb]
  | Checking for scalapack...
  | No scalapack compiled in.

  Obtaining array dimensions for all initial allocations:
  
  -----------------------------------------------------------------------
  Parsing control.in (first pass over file, find array dimensions only).
  The contents of control.in will be repeated verbatim below
  unless switched off by setting 'verbatim_writeout .false.' .
  in the first line of control.in .
  -----------------------------------------------------------------------
  
    #  Physical model settings
    #
  
    xc                            pbe
    charge                        0.0
    relativistic                  none
  #  default_initial_moment        0.0
    spin                          none
  #  vdw_correction_hirshfeld
  
    #  SCF convergence settings
    #
  
    sc_accuracy_rho               1E-4
    sc_accuracy_eev               1E-2
    sc_accuracy_etot              1E-8
    sc_iter_limit                 100
  
    #  Occupation settings
    #
  
    restart                       restart
  #  force_occupation_projector      21 1 1.0 20 21 # ion 0
  #  force_occupation_projector      20 1 1.0 20 21 # ion 1
  #  force_occupation_projector      19 1 1.0 18 19 # ion 2
  #  force_occupation_projector      18 1 1.0 18 19 # ion 3
  #  force_occupation_projector      17 1 1.0 17 17 # ion 4
  
    #  Relaxation
    #
  
    ######relax_geometry                bfgs    1.e-4
  
  
  ################################################################################
  #
  #  FHI-aims code project
  #  VB, Fritz-Haber Institut, 2007
  #
  #  Suggested "safe" defaults for O atom (to be pasted into control.in file)
  #
  ################################################################################
    species        O
  #     global species definitions
      nucleus             8
      mass                15.9994
  #
      l_hartree           8
  #
      cut_pot             4.0  2.0  1.0
      basis_dep_cutoff    0.d0
  #
      radial_base         36 7.0
      radial_multiplier   2
       angular_grids specified
        division   0.4087  110
        division   0.5181  194
        division   0.6184  302
        division   0.7315  434
        division   0.7934  590
  #      division   0.9656  770
  #      division   1.4041  974
  #      outer_grid 974
        outer_grid 590
  ################################################################################
  #
  #  Definition of "minimal" basis
  #
  ################################################################################
  #     valence basis states
      valence      2  s   2.
      valence      2  p   4.
  #     ion occupancy
      ion_occ      2  s   1.
      ion_occ      2  p   3.
  ################################################################################
  #
  #  Suggested additional basis functions. For production calculations,
  #  uncomment them one after another (the most important basis functions are
  #  listed first).
  #
  #  Constructed for dimers: 1.0 A, 1.208 A, 1.5 A, 2.0 A, 3.0 A
  #
  ################################################################################
  #  "First tier" - improvements: -699.05 meV to -159.38 meV
       hydro 2 p 1.8
       hydro 3 d 7.6
       hydro 3 s 6.4
  #  "Second tier" - improvements: -49.91 meV to -5.39 meV
       hydro 4 f 11.6
       hydro 3 p 6.2
       hydro 3 d 5.6
       hydro 5 g 17.6
       hydro 1 s 0.75
  #  "Third tier" - improvements: -2.83 meV to -0.50 meV
  #     ionic 2 p auto
  #     hydro 4 f 10.8
  #     hydro 4 d 4.7
  #     hydro 2 s 6.8
  #  "Fourth tier" - improvements: -0.40 meV to -0.12 meV
  #     hydro 3 p 5
  #     hydro 3 s 3.3
  #     hydro 5 g 15.6
  #     hydro 4 f 17.6
  #     hydro 4 d 14
  # Further basis functions - -0.08 meV and below
  #     hydro 3 s 2.1
  #     hydro 4 d 11.6
  #     hydro 3 p 16
  #     hydro 2 s 17.2
  compute_forces .true.
  final_forces_cleaned .true.
  output dipole
  
  -----------------------------------------------------------------------
  Completed first pass over input file control.in .
  -----------------------------------------------------------------------
  
  
  -----------------------------------------------------------------------
  Parsing geometry.in (first pass over file, find array dimensions only).
  The contents of geometry.in will be repeated verbatim below
  unless switched off by setting 'verbatim_writeout .false.' .
  in the first line of geometry.in .
  -----------------------------------------------------------------------
  
  #
  # temporary structure-file for finite-difference calculation of forces
  # displacement   0.0025 of \# atom     0 direction     2
  #
  atom   -0.00000000   -0.00000000    0.04485921   O
  atom    0.00000000    0.00000000    1.16514079   O
  
  -----------------------------------------------------------------------
  Completed first pass over input file geometry.in .
  -----------------------------------------------------------------------
  

  Basic array size parameters:
  | Number of species                 :        1
  | Number of atoms                   :        2
  | Max. basis fn. angular momentum   :        4
  | Max. atomic/ionic basis occupied n:        2
  | Max. number of basis fn. types    :        2
  | Max. radial fns per species/type  :        8
  | Max. logarithmic grid size        :     1301
  | Max. radial integration grid size :       73
  | Max. angular integration grid size:      590
  | Max. angular grid division number :        8
  | Radial grid for Hartree potential :     1301
  | Number of spin channels           :        1

------------------------------------------------------------
          Reading file control.in.
------------------------------------------------------------
  XC: Using PBE gradient-corrected functionals.
  Charge =   0.000000E+00: Neutral system requested explicitly.
  Non-relativistic treatment of kinetic energy.
  Spin treatment: No spin polarisation.
  Convergence accuracy of self-consistent charge density:  0.1000E-03
  Convergence accuracy of sum of eigenvalues:  0.1000E-01
  Convergence accuracy of total energy:  0.1000E-07
  Maximum number of s.-c. iterations  :   100
  Restart file specified as : restart
  | This file does not exist, will create it after the first complete scf cycle.
 
  Reading configuration options for species O                   .
  | Found nuclear charge :   8.0000
  | Found atomic mass :    15.9994000000000      amu
  | Found l_max for Hartree potential  :   8
  | Found cutoff potl. onset [A], width [A], scale factor :    4.00000    2.00000    1.00000
  | Threshold for basis-dependent cutoff potential is   0.000000E+00
  | Found data for basic radial integration grid :    36 points, outermost radius =    7.000 A
  | Found multiplier for basic radial grid :   2
  | Found angular grid specification: user-specified.
  | Specified grid contains     6 separate shells.
  | Check grid settings after all constraints further below.
  | Found free-atom valence shell :  2 s   2.000
  | Found free-atom valence shell :  2 p   4.000
  | No ionic wave fns used. Skipping ion_occ.
  | No ionic wave fns used. Skipping ion_occ.
  | Found hydrogenic basis function :  2 p   1.800
  | Found hydrogenic basis function :  3 d   7.600
  | Found hydrogenic basis function :  3 s   6.400
  | Found hydrogenic basis function :  4 f  11.600
  | Found hydrogenic basis function :  3 p   6.200
  | Found hydrogenic basis function :  3 d   5.600
  | Found hydrogenic basis function :  5 g  17.600
  | Found hydrogenic basis function :  1 s   0.750
  Species O                   : Missing cutoff potential type.
  Defaulting to exp(1/x)/(1-x)^2 type cutoff potential.
  Species O : No 'logarithmic' tag. Using default grid for free atom:
  | Default logarithmic grid data [bohr] : 0.1000E-03 0.1000E+03 0.1012E+01
  Species O : On-site basis accuracy parameter (for Gram-Schmidt orthonormalisation) not specified.
  Using default value basis_acc =  0.1000000E-03.
  Species O                   : Using default innermost maximum threshold i_radial=  2 for radial functions.
  Species O                   : Default cutoff onset for free atom density etc. : 0.40000000E+01 AA.
  Species O                   : Basic radial grid will be enhanced according to radial_multiplier =   2, to contain    73 grid points.
  Forces will be computed.
  Cleaning forces before final output.
  Dipole moment will be written out.
 
  Finished reading input file 'control.in'. Consistency checks are next.
 
  Target number of points in a grid batch is not set. Defaulting to  100
  Method for grid partitioning is not set. Defaulting to parallel hash+maxmin partitioning.
  Batch size limit is not set. Defaulting to    200
  By default, will store active basis functions for each batch.
  If in need of memory, prune_basis_once .false. can be used to disable this option.
  communication_type for Hartree potential was not specified.
  Defaulting to calc_hartree .
  Defaulting to Pulay charge density mixer.
  Pulay mixer: Number of relevant iterations not set.
  Defaulting to    8 iterations.
  Pulay mixer: Number of initial linear mixing iterations not set.
  Defaulting to    0 iterations.
  Work space size for distributed Hartree potential not set.
  Defaulting to   0.200000E+03 MB.
  Mixing parameter for charge density mixing has not been set.
  Using default: charge_mix_param =     0.2000.
  Algorithm-dependent basis array size parameters:
  | n_max_pulay                         :        8
  Geometry relaxation not requested: no relaxation will be performed.
  Force calculation: scf convergence accuracy of forces not set.
  Defaulting to  0.1000E-03 eV/A.
  Handling of forces: Unphysical translation and rotation will be removed from forces.
  No accuracy limit for integral partition fn. given. Defaulting to  0.1000E-14.
  No threshold value for u(r) in integrations given. Defaulting to  0.1000E-05.
  No occupation type (smearing scheme) given. Defaulting to Gaussian broadening, width =  0.1000E-01 eV.
  No accuracy for occupation numbers given. Defaulting to  0.1000E-07.
  No threshold value for occupation numbers given. Defaulting to  0.0000E+00.
  No accuracy for fermi level given. Defaulting to  0.1000E-19.
  Maximum # of iterations to find E_F not set. Defaulting to  200.
  Preferred method for the eigenvalue solver ('KS_method') not specified in 'control.in'.
  Calling blacs routine to test compilation state
  The best choice would be 'elpa', but your version of FHI-aims is compiled without scalapack support.
  Defaulting to 'lapack_fast' instead (serial solution, time will not improve with more CPUs).
  Will not use alltoall communication since running on < 1024 CPUs.
  Threshold for basis singularities not set.
  Default threshold for basis singularities:  0.1000E-04
  partition_type (choice of integration weights) for integrals was not specified.
  | Using a version of the partition function of Stratmann and coworkers ('stratmann_smoother').
  | At each grid point, the set of atoms used to build the partition table is smoothly restricted to
  | only those atoms whose free-atom density would be non-zero at that grid point.
  Partitioning for Hartree potential was not defined. Using partition_type for integrals.
  | Adjusted default value of keyword multip_moments_threshold to:       0.10000000E-11
  | This value may affect high angular momentum components of the Hartree potential in periodic systems.
  No q(lm)/r^(l+1) cutoff set for long-range Hartree potential.
  | Using default value of  0.100000E-09 .
  | Verify using the multipole_threshold keyword.
  Defaulting to new monopole extrapolation.
  Density update method: automatic selection selected.
------------------------------------------------------------


------------------------------------------------------------
          Reading geometry description geometry.in.
------------------------------------------------------------
  Input structure read successfully.
  The structure contains        2 atoms,  and a total of         16.000 electrons.

  Input geometry:
  | No unit cell requested.
  | Atomic structure:
  |       Atom                x [A]            y [A]            z [A]
  |    1: Species O              0.000000         0.000000         0.044859
  |    2: Species O              0.000000         0.000000         1.165141
  |

  | The smallest distance between any two atoms is         1.12028158 AA.
  |
  | The first atom of this pair is atom number                      1 .
  | The second atom of this pair is atom number                     2 .

  Number of empty states per atom not set in control.in - providing a guess from actual geometry.
  | Total number of empty states used during s.c.f. cycle:        6
  If you use a very high smearing, use empty_states (per atom!) in control.in to increase this value.

  Structure-dependent array size parameters: 
  | Maximum number of distinct radial functions  :       11
  | Maximum number of basis functions            :       78
  | Number of Kohn-Sham states (occupied + empty):       14
------------------------------------------------------------

------------------------------------------------------------
          Preparing all fixed parts of the calculation.
------------------------------------------------------------
  Determining machine precision:
    2.225073858507201E-308
  Setting up grids for atomic and cluster calculations.

  Creating wave function, potential, and density for free atoms.

  Species: O

  List of occupied orbitals and eigenvalues:
    n    l              occ      energy [Ha]    energy [eV]
    1    0           2.0000       -18.898576      -514.2564
    2    0           2.0000        -0.878795       -23.9132
    2    1           4.0000        -0.332075        -9.0362

  Creating fixed part of basis set: Ionic, confined, hydrogenic.
 
  O                    hydrogenic:
 
  List of hydrogenic basis orbitals: 
    n    l      effective z      eigenvalue [eV]  inner max. [A]     outer max. [A]     outer radius [A]   
    2    1         1.800000       -11.0118           1.178562           1.178562           5.432602
    3    2         7.600000       -87.3183           0.624125           0.624125           4.634338
    3    0         6.400000       -61.9210           0.061167           1.081902           5.110480
    4    3        11.600000      -114.4239           0.731631           0.731631           4.522403
    3    1         6.200000       -58.1114           0.255680           1.030270           5.110480
    3    2         5.600000       -47.4083           0.847233           0.847233           5.173339
    5    4        17.600000      -168.5800           0.749740           0.749740           4.051222
    1    0         0.750000        -7.6499           0.705284           0.705284           5.366593
 

  Adding cutoff potential to free-atom effective potential.
  Creating atomic-like basis functions for current effective potential.

  Species O                   :

  List of atomic basis orbitals and eigenvalues:
    n    l      energy [Ha]    energy [eV]    outer radius [A]
    1    0       -18.898576      -514.2564       1.415765
    2    0        -0.878795       -23.9132       5.048385
    2    1        -0.332075        -9.0362       5.301386

  Assembling full basis from fixed parts.
  | Species O :   atomic orbital   1 s accepted.
  | Species O :   atomic orbital   2 s accepted.
  | Species O :    hydro orbital   3 s accepted.
  | Species O :    hydro orbital   1 s accepted.
  | Species O :   atomic orbital   2 p accepted.
  | Species O :    hydro orbital   2 p accepted.
  | Species O :    hydro orbital   3 p accepted.
  | Species O :    hydro orbital   3 d accepted.
  | Species O :    hydro orbital   3 d accepted.
  | Species O :    hydro orbital   4 f accepted.
  | Species O :    hydro orbital   5 g accepted.
 
  Basis size parameters after reduction:
  | Total number of radial functions:       11
  | Total number of basis functions :       78
 
  Testing on-site integration grid accuracy.
  |  Species  Function  <phi|h_atom|phi> (log., in eV)  <phi|h_atom|phi> (rad., in eV)
           1        1               -514.2564144315               -514.2564099626
           1        2                -23.9132357102                -23.9132356433
           1        3                 17.5398579759                 17.5398338425
           1        4                 14.5207278950                 14.5207740449
           1        5                 -9.0362392718                 -9.0362394845
           1        6                  7.9056275927                  7.9056237490
           1        7                 33.4201658992                 33.4201612015
           1        8                 45.8231952720                 45.8231953152
           1        9                 52.1937595491                 52.1937593440
           1       10                 85.4062894308                 85.4062894578
           1       11                142.0975701139                142.0975701391

  Preparing densities etc. for the partition functions (integrals / Hartree potential).

  Preparations completed.
  max(cpu_time)          :      0.149 s.
  Wall clock time (cpu1) :      0.168 s.
------------------------------------------------------------

------------------------------------------------------------
          Begin self-consistency loop: Initialization.

          Date     :  20190722, Time     :  143612.886
------------------------------------------------------------

  Initializing index lists of integration centers etc. from given atomic structure:
  | Number of centers in hartree potential         :         2
  | Number of centers in hartree multipole         :         2
  | Number of centers in electron density summation:         2
  | Number of centers in basis integrals           :         2
  | Number of centers in integrals                 :         2
  | Number of centers in hamiltonian               :         2
  Partitioning the integration grid into batches with parallel hashing+maxmin method.
  | Number of batches:      839
  | Maximal batch size:     119
  | Minimal batch size:      49
  | Average batch size:      63.480
  | Standard deviation of batch sizes:      18.156

  Integration load balanced across     8 MPI tasks.
  Work distribution over tasks is as follows:
  Task     0 has       6627 integration points.
  Task     1 has       6627 integration points.
  Task     2 has       6720 integration points.
  Task     3 has       6691 integration points.
  Task     4 has       6634 integration points.
  Task     5 has       6700 integration points.
  Task     6 has       6637 integration points.
  Task     7 has       6624 integration points.
  Initializing partition tables, free-atom densities, potentials, etc. across the integration grid (initialize_grid_storage).
  | initialize_grid_storage: Actual outermost partition radius vs. multipole_radius_free
  | (-- VB: in principle, multipole_radius_free should be larger, hence this output)
  | Species        1: Confinement radius =              6.000000000000000 AA, multipole_radius_free =              6.064445521808699 AA.
  | Species        1: outer_partition_radius set to              6.064445521808699 AA .
  | Original list of interatomic distances with           2 x          2 entries is created.
  | Net number of integration points:    53260
  | of which are non-zero points    :    49986
  Obtaining max. number of non-zero basis functions in each batch (get_n_compute_maxes).
  | Maximal number of non-zero basis functions:       78 in task     0
  | Maximal number of non-zero basis functions:       78 in task     1
  | Maximal number of non-zero basis functions:       78 in task     2
  | Maximal number of non-zero basis functions:       78 in task     3
  | Maximal number of non-zero basis functions:       78 in task     4
  | Maximal number of non-zero basis functions:       78 in task     5
  | Maximal number of non-zero basis functions:       78 in task     6
  | Maximal number of non-zero basis functions:       78 in task     7
  Selecting the method for density update.
  Loop over occupied states selected for charge density update.
  Integrating Hamiltonian matrix: batch-based integration.
  Time summed over all CPUs for integration: real work        0.177 s, elapsed        0.184 s
  Integrating overlap matrix.
  Time summed over all CPUs for integration: real work        0.063 s, elapsed        0.066 s

  Updating Kohn-Sham eigenvalues, eigenvectors, occupation numbers, and Fermi level.
  Solving generalized eigenproblem
  Updating Kohn-Sham eigenvalues and eigenfunctions.
  Transforming overlap matrix and checking for singularities.
  Overlap matrix is nonsingular:
  | Lowest eigenvalue:  0.183632E-03
  Solving real generalised eigenvalue problem by standard LAPACK (fast)
  Determining occupation numbers for Kohn-Sham eigenstates.
  | Chemical potential (Fermi level) in eV                 : -.60286236E+01
  | Error in electron count due to remaining E_F inaccuracy: 0.13909229E-08
  | Maximum occupation number of highest empty state:  0.00E+00

  Writing Kohn-Sham eigenvalues.

  State    Occupation    Eigenvalue [Ha]    Eigenvalue [eV]
      1       2.00000         -18.953773         -515.75841
      2       2.00000         -18.953550         -515.75233
      3       2.00000          -1.281828          -34.88031
      4       2.00000          -0.748930          -20.37943
      5       2.00000          -0.543860          -14.79919
      6       2.00000          -0.528900          -14.39210
      7       2.00000          -0.528900          -14.39210
      8       1.00000          -0.221548           -6.02862
      9       1.00000          -0.221548           -6.02862
     10       0.00000           0.089712            2.44118
     11       0.00000           0.095772            2.60609
     12       0.00000           0.127326            3.46472
     13       0.00000           0.127326            3.46472
     14       0.00000           0.201993            5.49651

  Highest occupied state (VBM) at     -6.02862362 eV
  | Occupation number:      1.00000000

  Lowest unoccupied state (CBM) at     2.44118111 eV
  | Occupation number:      0.00000000

  Overall HOMO-LUMO gap:      8.46980473 eV.
  Calculating total energy contributions from superposition of free atom densities.

  Total energy components:
  | Sum of eigenvalues            :         -83.52257814 Ha       -2272.76498825 eV
  | XC energy correction          :         -16.82262305 Ha        -457.76686412 eV
  | XC potential correction       :          21.62973592 Ha         588.57506072 eV
  | Free-atom electrostatic energy:         -71.49642835 Ha       -1945.51680219 eV
  | Hartree energy correction     :           0.00000000 Ha           0.00000000 eV
  | Entropy correction            :          -0.00020734 Ha          -0.00564190 eV
  | ---------------------------
  | Total energy                  :        -150.21189362 Ha       -4087.47359383 eV
  | Total energy, T -> 0          :        -150.21210096 Ha       -4087.47923572 eV  <-- do not rely on this value for anything but (periodic) metals
  | Electronic free energy        :        -150.21230829 Ha       -4087.48487762 eV

  Derived energy quantities:
  | Kinetic energy                :         149.92798944 Ha        4079.74816799 eV
  | Electrostatic energy          :        -283.31726001 Ha       -7709.45489770 eV
  | Energy correction for multipole
  | error in Hartree potential    :           0.00000000 Ha           0.00000000 eV
  | Sum of eigenvalues per atom                           :       -1136.38249412 eV
  | Total energy (T->0) per atom                          :       -2043.73961786 eV  <-- do not rely on this value for anything but (periodic) metals
  | Electronic free energy per atom                       :       -2043.74243881 eV
  Initialize hartree_potential_storage
  Max. number of atoms included in rho_multipole:            2

  End scf initialization - timings             :  max(cpu_time)    wall_clock(cpu1)
  | Time for scf. initialization               :        0.092 s           0.091 s
  | Boundary condition initialization          :        0.000 s           0.001 s
  | Integration                                :        0.033 s           0.033 s
  | Solution of K.-S. eqns.                    :        0.009 s           0.009 s
  | Grid partitioning                          :        0.017 s           0.017 s
  | Preloading free-atom quantities on grid    :        0.018 s           0.018 s
  | Free-atom superposition energy             :        0.005 s           0.004 s
  | Total energy evaluation                    :        0.001 s           0.001 s
------------------------------------------------------------

------------------------------------------------------------
          Begin self-consistency iteration #    1

  Date     :  20190722, Time     :  143612.977
------------------------------------------------------------
  Evaluating new KS density.
  Integration grid: deviation in total charge (<rho> - N_e) =   1.390966E-09
  Pulay mixing of updated and previous charge densities.

  Evaluating partitioned Hartree potential by multipole expansion.
  | Analytical far-field extrapolation by fixed multipoles:
  | Hartree multipole sum: apparent total charge =  -0.551660E-07
  Summing up the Hartree potential.
  Time summed over all CPUs for potential: real work        0.113 s, elapsed        0.114 s
  | RMS charge density error from multipole expansion :   0.121037E-03

  Integrating Hamiltonian matrix: batch-based integration.
  Time summed over all CPUs for integration: real work        0.166 s, elapsed        0.173 s

  Updating Kohn-Sham eigenvalues, eigenvectors, occupation numbers, and Fermi level.
  Solving generalized eigenproblem
  Updating Kohn-Sham eigenvalues and eigenfunctions.
  Solving real generalised eigenvalue problem by standard LAPACK (fast)
  Determining occupation numbers for Kohn-Sham eigenstates.
  | Chemical potential (Fermi level) in eV                 : -.56589876E+01
  | Error in electron count due to remaining E_F inaccuracy: -.48583360E-11
  | Maximum occupation number of highest empty state:  0.00E+00

  Writing Kohn-Sham eigenvalues.

  State    Occupation    Eigenvalue [Ha]    Eigenvalue [eV]
      1       2.00000         -18.925864         -514.99896
      2       2.00000         -18.925640         -514.99285
      3       2.00000          -1.274588          -34.68331
      4       2.00000          -0.731800          -19.91330
      5       2.00000          -0.526442          -14.32521
      6       2.00000          -0.518459          -14.10798
      7       2.00000          -0.518459          -14.10798
      8       1.00000          -0.207964           -5.65899
      9       1.00000          -0.207964           -5.65899
     10       0.00000           0.092694            2.52234
     11       0.00000           0.099165            2.69841
     12       0.00000           0.129301            3.51847
     13       0.00000           0.129301            3.51847
     14       0.00000           0.204421            5.56257

  Highest occupied state (VBM) at    -14.10798026 eV
  | Occupation number:      2.00000000

  Lowest unoccupied state (CBM) at    -5.65898758 eV
  | Occupation number:      1.00000000

  Overall HOMO-LUMO gap:      8.44899268 eV.

  Total energy components:
  | Sum of eigenvalues            :         -83.25843043 Ha       -2265.57716326 eV
  | XC energy correction          :         -16.85908828 Ha        -458.75913360 eV
  | XC potential correction       :          21.67726363 Ha         589.86835544 eV
  | Free-atom electrostatic energy:         -71.49642835 Ha       -1945.51680219 eV
  | Hartree energy correction     :          -0.26873126 Ha          -7.31254956 eV
  | Entropy correction            :          -0.00020734 Ha          -0.00564190 eV
  | ---------------------------
  | Total energy                  :        -150.20541469 Ha       -4087.29729316 eV
  | Total energy, T -> 0          :        -150.20562203 Ha       -4087.30293506 eV  <-- do not rely on this value for anything but (periodic) metals
  | Electronic free energy        :        -150.20582936 Ha       -4087.30857696 eV

  Derived energy quantities:
  | Kinetic energy                :         150.13529148 Ha        4085.38914342 eV
  | Electrostatic energy          :        -283.48161789 Ha       -7713.92730299 eV
  | Energy correction for multipole
  | error in Hartree potential    :          -0.00015400 Ha          -0.00419042 eV
  | Sum of eigenvalues per atom                           :       -1132.78858163 eV
  | Total energy (T->0) per atom                          :       -2043.65146753 eV  <-- do not rely on this value for anything but (periodic) metals
  | Electronic free energy per atom                       :       -2043.65428848 eV

  Self-consistency convergence accuracy:
  | Change of charge density      :  0.1780E+00
  | Change of sum of eigenvalues  :  0.7188E+01 eV
  | Change of total energy        :  0.1763E+00 eV

  End self-consistency iteration #     1       :  max(cpu_time)    wall_clock(cpu1)
  | Time for this iteration                    :        0.063 s           0.063 s
  | Charge density update                      :        0.018 s           0.017 s
  | Density mixing                             :        0.001 s           0.001 s
  | Hartree multipole update                   :        0.004 s           0.004 s
  | Hartree multipole summation                :        0.016 s           0.016 s
  | Integration                                :        0.022 s           0.022 s
  | Solution of K.-S. eqns.                    :        0.001 s           0.001 s
  | Total energy evaluation                    :        0.000 s           0.001 s
------------------------------------------------------------

------------------------------------------------------------
          Begin self-consistency iteration #    2

  Date     :  20190722, Time     :  143613.042
------------------------------------------------------------
  Evaluating new KS density.
  Integration grid: deviation in total charge (<rho> - N_e) =  -5.048406E-12
  Pulay mixing of updated and previous charge densities.

  Evaluating partitioned Hartree potential by multipole expansion.
  | Analytical far-field extrapolation by fixed multipoles:
  | Hartree multipole sum: apparent total charge =  -0.160951E-06
  Summing up the Hartree potential.
  Time summed over all CPUs for potential: real work        0.109 s, elapsed        0.115 s
  | RMS charge density error from multipole expansion :   0.440523E-03

  Integrating Hamiltonian matrix: batch-based integration.
  Time summed over all CPUs for integration: real work        0.170 s, elapsed        0.186 s

  Updating Kohn-Sham eigenvalues, eigenvectors, occupation numbers, and Fermi level.
  Solving generalized eigenproblem
  Updating Kohn-Sham eigenvalues and eigenfunctions.
  Solving real generalised eigenvalue problem by standard LAPACK (fast)
  Determining occupation numbers for Kohn-Sham eigenstates.
  | Chemical potential (Fermi level) in eV                 : -.49302732E+01
  | Error in electron count due to remaining E_F inaccuracy: 0.85265128E-13
  | Maximum occupation number of highest empty state:  0.00E+00

  Highest occupied state (VBM) at     -4.93027321 eV
  | Occupation number:      1.00000000

  Lowest unoccupied state (CBM) at    -4.93027321 eV
  | Occupation number:      1.00000000

  Overall HOMO-LUMO gap:      0.00000000 eV.

  Total energy components:
  | Sum of eigenvalues            :         -82.74912859 Ha       -2251.71835516 eV
  | XC energy correction          :         -16.93382328 Ha        -460.79277636 eV
  | XC potential correction       :          21.77457775 Ha         592.51640750 eV
  | Free-atom electrostatic energy:         -71.49642835 Ha       -1945.51680219 eV
  | Hartree energy correction     :          -0.79553174 Ha         -21.64752002 eV
  | Entropy correction            :          -0.00020734 Ha          -0.00564190 eV
  | ---------------------------
  | Total energy                  :        -150.20033421 Ha       -4087.15904624 eV
  | Total energy, T -> 0          :        -150.20054155 Ha       -4087.16468813 eV  <-- do not rely on this value for anything but (periodic) metals
  | Electronic free energy        :        -150.20074888 Ha       -4087.17033003 eV

  Derived energy quantities:
  | Kinetic energy                :         150.47178145 Ha        4094.54550139 eV
  | Electrostatic energy          :        -283.73829238 Ha       -7720.91177127 eV
  | Energy correction for multipole
  | error in Hartree potential    :          -0.00050840 Ha          -0.01383422 eV
  | Sum of eigenvalues per atom                           :       -1125.85917758 eV
  | Total energy (T->0) per atom                          :       -2043.58234407 eV  <-- do not rely on this value for anything but (periodic) metals
  | Electronic free energy per atom                       :       -2043.58516501 eV

  Self-consistency convergence accuracy:
  | Change of charge density      :  0.1272E+00
  | Change of sum of eigenvalues  :  0.1386E+02 eV
  | Change of total energy        :  0.1382E+00 eV

  End self-consistency iteration #     2       :  max(cpu_time)    wall_clock(cpu1)
  | Time for this iteration                    :        0.062 s           0.062 s
  | Charge density update                      :        0.016 s           0.016 s
  | Density mixing                             :        0.001 s           0.001 s
  | Hartree multipole update                   :        0.004 s           0.003 s
  | Hartree multipole summation                :        0.016 s           0.016 s
  | Integration                                :        0.024 s           0.024 s
  | Solution of K.-S. eqns.                    :        0.001 s           0.001 s
  | Total energy evaluation                    :        0.000 s           0.001 s
------------------------------------------------------------

------------------------------------------------------------
          Begin self-consistency iteration #    3

  Date     :  20190722, Time     :  143613.107
------------------------------------------------------------
  Evaluating new KS density.
  Integration grid: deviation in total charge (<rho> - N_e) =   4.973799E-14
  Pulay mixing of updated and previous charge densities.

  Evaluating partitioned Hartree potential by multipole expansion.
  | Analytical far-field extrapolation by fixed multipoles:
  | Hartree multipole sum: apparent total charge =  -0.246649E-06
  Summing up the Hartree potential.
  Time summed over all CPUs for potential: real work        0.109 s, elapsed        0.110 s
  | RMS charge density error from multipole expansion :   0.608416E-03

  Integrating Hamiltonian matrix: batch-based integration.
  Time summed over all CPUs for integration: real work        0.166 s, elapsed        0.172 s

  Updating Kohn-Sham eigenvalues, eigenvectors, occupation numbers, and Fermi level.
  Solving generalized eigenproblem
  Updating Kohn-Sham eigenvalues and eigenfunctions.
  Solving real generalised eigenvalue problem by standard LAPACK (fast)
  Determining occupation numbers for Kohn-Sham eigenstates.
  | Chemical potential (Fermi level) in eV                 : -.51136539E+01
  | Error in electron count due to remaining E_F inaccuracy: 0.75481665E-09
  | Maximum occupation number of highest empty state:  0.00E+00

  Highest occupied state (VBM) at     -5.11365389 eV
  | Occupation number:      1.00000001

  Lowest unoccupied state (CBM) at    -5.11365389 eV
  | Occupation number:      0.99999999

  Overall HOMO-LUMO gap:      0.00000000 eV.

  Total energy components:
  | Sum of eigenvalues            :         -82.91617298 Ha       -2256.26386427 eV
  | XC energy correction          :         -16.91457983 Ha        -460.26913542 eV
  | XC potential correction       :          21.74928368 Ha         591.82812077 eV
  | Free-atom electrostatic energy:         -71.49642835 Ha       -1945.51680219 eV
  | Hartree energy correction     :          -0.62237447 Ha         -16.93567109 eV
  | Entropy correction            :          -0.00020734 Ha          -0.00564190 eV
  | ---------------------------
  | Total energy                  :        -150.20027196 Ha       -4087.15735220 eV
  | Total energy, T -> 0          :        -150.20047929 Ha       -4087.16299410 eV  <-- do not rely on this value for anything but (periodic) metals
  | Electronic free energy        :        -150.20068663 Ha       -4087.16863599 eV

  Derived energy quantities:
  | Kinetic energy                :         150.20336747 Ha        4087.24158553 eV
  | Electrostatic energy          :        -283.48905960 Ha       -7714.12980231 eV
  | Energy correction for multipole
  | error in Hartree potential    :          -0.00056848 Ha          -0.01546909 eV
  | Sum of eigenvalues per atom                           :       -1128.13193213 eV
  | Total energy (T->0) per atom                          :       -2043.58149705 eV  <-- do not rely on this value for anything but (periodic) metals
  | Electronic free energy per atom                       :       -2043.58431800 eV

  Self-consistency convergence accuracy:
  | Change of charge density      :  0.3313E-01
  | Change of sum of eigenvalues  : -0.4546E+01 eV
  | Change of total energy        :  0.1694E-02 eV

  End self-consistency iteration #     3       :  max(cpu_time)    wall_clock(cpu1)
  | Time for this iteration                    :        0.059 s           0.059 s
  | Charge density update                      :        0.016 s           0.016 s
  | Density mixing                             :        0.002 s           0.001 s
  | Hartree multipole update                   :        0.004 s           0.003 s
  | Hartree multipole summation                :        0.015 s           0.014 s
  | Integration                                :        0.022 s           0.022 s
  | Solution of K.-S. eqns.                    :        0.001 s           0.001 s
  | Total energy evaluation                    :        0.001 s           0.000 s
------------------------------------------------------------

------------------------------------------------------------
          Begin self-consistency iteration #    4

  Date     :  20190722, Time     :  143613.167
------------------------------------------------------------
  Evaluating new KS density.
  Integration grid: deviation in total charge (<rho> - N_e) =   7.548380E-10
  Pulay mixing of updated and previous charge densities.

  Evaluating partitioned Hartree potential by multipole expansion.
  | Analytical far-field extrapolation by fixed multipoles:
  | Hartree multipole sum: apparent total charge =  -0.251731E-06
  Summing up the Hartree potential.
  Time summed over all CPUs for potential: real work        0.108 s, elapsed        0.110 s
  | RMS charge density error from multipole expansion :   0.641765E-03

  Integrating Hamiltonian matrix: batch-based integration.
  Time summed over all CPUs for integration: real work        0.166 s, elapsed        0.173 s

  Updating Kohn-Sham eigenvalues, eigenvectors, occupation numbers, and Fermi level.
  Solving generalized eigenproblem
  Updating Kohn-Sham eigenvalues and eigenfunctions.
  Solving real generalised eigenvalue problem by standard LAPACK (fast)
  Determining occupation numbers for Kohn-Sham eigenstates.
  | Chemical potential (Fermi level) in eV                 : -.50176748E+01
  | Error in electron count due to remaining E_F inaccuracy: -.28990144E-11
  | Maximum occupation number of highest empty state:  0.00E+00

  Highest occupied state (VBM) at     -5.01767484 eV
  | Occupation number:      1.00000026

  Lowest unoccupied state (CBM) at    -5.01767484 eV
  | Occupation number:      0.99999974

  Overall HOMO-LUMO gap:      0.00000000 eV.

  Total energy components:
  | Sum of eigenvalues            :         -82.84324704 Ha       -2254.27944841 eV
  | XC energy correction          :         -16.92297667 Ha        -460.49762512 eV
  | XC potential correction       :          21.76024983 Ha         592.12652481 eV
  | Free-atom electrostatic energy:         -71.49642835 Ha       -1945.51680219 eV
  | Hartree energy correction     :          -0.69785321 Ha         -18.98955195 eV
  | Entropy correction            :          -0.00020734 Ha          -0.00564190 eV
  | ---------------------------
  | Total energy                  :        -150.20025544 Ha       -4087.15690285 eV
  | Total energy, T -> 0          :        -150.20046278 Ha       -4087.16254475 eV  <-- do not rely on this value for anything but (periodic) metals
  | Electronic free energy        :        -150.20067011 Ha       -4087.16818665 eV

  Derived energy quantities:
  | Kinetic energy                :         150.25334481 Ha        4088.60153806 eV
  | Electrostatic energy          :        -283.53062358 Ha       -7715.26081579 eV
  | Energy correction for multipole
  | error in Hartree potential    :          -0.00060287 Ha          -0.01640492 eV
  | Sum of eigenvalues per atom                           :       -1127.13972420 eV
  | Total energy (T->0) per atom                          :       -2043.58127237 eV  <-- do not rely on this value for anything but (periodic) metals
  | Electronic free energy per atom                       :       -2043.58409332 eV

  Self-consistency convergence accuracy:
  | Change of charge density      :  0.7602E-02
  | Change of sum of eigenvalues  :  0.1984E+01 eV
  | Change of total energy        :  0.4493E-03 eV

  End self-consistency iteration #     4       :  max(cpu_time)    wall_clock(cpu1)
  | Time for this iteration                    :        0.058 s           0.059 s
  | Charge density update                      :        0.015 s           0.016 s
  | Density mixing                             :        0.001 s           0.001 s
  | Hartree multipole update                   :        0.004 s           0.003 s
  | Hartree multipole summation                :        0.015 s           0.015 s
  | Integration                                :        0.022 s           0.022 s
  | Solution of K.-S. eqns.                    :        0.001 s           0.001 s
  | Total energy evaluation                    :        0.001 s           0.001 s
------------------------------------------------------------

------------------------------------------------------------
          Begin self-consistency iteration #    5

  Date     :  20190722, Time     :  143613.229
------------------------------------------------------------
  Evaluating new KS density.
  Integration grid: deviation in total charge (<rho> - N_e) =  -2.971845E-12
  Pulay mixing of updated and previous charge densities.

  Evaluating partitioned Hartree potential by multipole expansion.
  | Analytical far-field extrapolation by fixed multipoles:
  | Hartree multipole sum: apparent total charge =  -0.253571E-06
  Summing up the Hartree potential.
  Time summed over all CPUs for potential: real work        0.109 s, elapsed        0.111 s
  | RMS charge density error from multipole expansion :   0.650038E-03

  Integrating Hamiltonian matrix: batch-based integration.
  Time summed over all CPUs for integration: real work        0.167 s, elapsed        0.182 s

  Updating Kohn-Sham eigenvalues, eigenvectors, occupation numbers, and Fermi level.
  Solving generalized eigenproblem
  Updating Kohn-Sham eigenvalues and eigenfunctions.
  Solving real generalised eigenvalue problem by standard LAPACK (fast)
  Determining occupation numbers for Kohn-Sham eigenstates.
  | Chemical potential (Fermi level) in eV                 : -.50570060E+01
  | Error in electron count due to remaining E_F inaccuracy: -.85265128E-13
  | Maximum occupation number of highest empty state:  0.00E+00

  Highest occupied state (VBM) at     -5.05700603 eV
  | Occupation number:      1.00000325

  Lowest unoccupied state (CBM) at    -5.05700597 eV
  | Occupation number:      0.99999675

  Overall HOMO-LUMO gap:      0.00000006 eV.

  Total energy components:
  | Sum of eigenvalues            :         -82.87407984 Ha       -2255.11845159 eV
  | XC energy correction          :         -16.91869391 Ha        -460.38108534 eV
  | XC potential correction       :          21.75465195 Ha         591.97419893 eV
  | Free-atom electrostatic energy:         -71.49642835 Ha       -1945.51680219 eV
  | Hartree energy correction     :          -0.66569236 Ha         -18.11441070 eV
  | Entropy correction            :          -0.00020734 Ha          -0.00564190 eV
  | ---------------------------
  | Total energy                  :        -150.20024251 Ha       -4087.15655089 eV
  | Total energy, T -> 0          :        -150.20044984 Ha       -4087.16219278 eV  <-- do not rely on this value for anything but (periodic) metals
  | Electronic free energy        :        -150.20065718 Ha       -4087.16783468 eV

  Derived energy quantities:
  | Kinetic energy                :         150.21800800 Ha        4087.63997449 eV
  | Electrostatic energy          :        -283.49955659 Ha       -7714.41544004 eV
  | Energy correction for multipole
  | error in Hartree potential    :          -0.00059824 Ha          -0.01627898 eV
  | Sum of eigenvalues per atom                           :       -1127.55922580 eV
  | Total energy (T->0) per atom                          :       -2043.58109639 eV  <-- do not rely on this value for anything but (periodic) metals
  | Electronic free energy per atom                       :       -2043.58391734 eV

  Self-consistency convergence accuracy:
  | Change of charge density      :  0.4981E-02
  | Change of sum of eigenvalues  : -0.8390E+00 eV
  | Change of total energy        :  0.3520E-03 eV

  End self-consistency iteration #     5       :  max(cpu_time)    wall_clock(cpu1)
  | Time for this iteration                    :        0.060 s           0.059 s
  | Charge density update                      :        0.016 s           0.015 s
  | Density mixing                             :        0.001 s           0.001 s
  | Hartree multipole update                   :        0.003 s           0.003 s
  | Hartree multipole summation                :        0.015 s           0.015 s
  | Integration                                :        0.023 s           0.023 s
  | Solution of K.-S. eqns.                    :        0.001 s           0.001 s
  | Total energy evaluation                    :        0.000 s           0.001 s
------------------------------------------------------------

------------------------------------------------------------
          Begin self-consistency iteration #    6

  Date     :  20190722, Time     :  143613.291
------------------------------------------------------------
  Evaluating new KS density.
  Integration grid: deviation in total charge (<rho> - N_e) =  -7.993606E-14
  Pulay mixing of updated and previous charge densities.

  Evaluating partitioned Hartree potential by multipole expansion.
  | Analytical far-field extrapolation by fixed multipoles:
  | Hartree multipole sum: apparent total charge =  -0.251646E-06
  Summing up the Hartree potential.
  Time summed over all CPUs for potential: real work        0.111 s, elapsed        0.118 s
  | RMS charge density error from multipole expansion :   0.651433E-03

  Integrating Hamiltonian matrix: batch-based integration.
  Time summed over all CPUs for integration: real work        0.166 s, elapsed        0.172 s

  Updating Kohn-Sham eigenvalues, eigenvectors, occupation numbers, and Fermi level.
  Solving generalized eigenproblem
  Updating Kohn-Sham eigenvalues and eigenfunctions.
  Solving real generalised eigenvalue problem by standard LAPACK (fast)
  Determining occupation numbers for Kohn-Sham eigenstates.
  | Chemical potential (Fermi level) in eV                 : -.50591881E+01
  | Error in electron count due to remaining E_F inaccuracy: 0.00000000E+00
  | Maximum occupation number of highest empty state:  0.00E+00

  Highest occupied state (VBM) at     -5.05918983 eV
  | Occupation number:      1.00019520

  Lowest unoccupied state (CBM) at    -5.05918637 eV
  | Occupation number:      0.99980480

  Overall HOMO-LUMO gap:      0.00000346 eV.

  Total energy components:
  | Sum of eigenvalues            :         -82.87537821 Ha       -2255.15378198 eV
  | XC energy correction          :         -16.91864540 Ha        -460.37976531 eV
  | XC potential correction       :          21.75457971 Ha         591.97223307 eV
  | Free-atom electrostatic energy:         -71.49642835 Ha       -1945.51680219 eV
  | Hartree energy correction     :          -0.66437024 Ha         -18.07843396 eV
  | Entropy correction            :          -0.00020734 Ha          -0.00564190 eV
  | ---------------------------
  | Total energy                  :        -150.20024249 Ha       -4087.15655037 eV
  | Total energy, T -> 0          :        -150.20044983 Ha       -4087.16219227 eV  <-- do not rely on this value for anything but (periodic) metals
  | Electronic free energy        :        -150.20065716 Ha       -4087.16783416 eV

  Derived energy quantities:
  | Kinetic energy                :         150.21992444 Ha        4087.69212349 eV
  | Electrostatic energy          :        -283.50152152 Ha       -7714.46890855 eV
  | Energy correction for multipole
  | error in Hartree potential    :          -0.00059886 Ha          -0.01629589 eV
  | Sum of eigenvalues per atom                           :       -1127.57689099 eV
  | Total energy (T->0) per atom                          :       -2043.58109613 eV  <-- do not rely on this value for anything but (periodic) metals
  | Electronic free energy per atom                       :       -2043.58391708 eV

  Self-consistency convergence accuracy:
  | Change of charge density      :  0.2645E-03
  | Change of sum of eigenvalues  : -0.3533E-01 eV
  | Change of total energy        :  0.5190E-06 eV

  End self-consistency iteration #     6       :  max(cpu_time)    wall_clock(cpu1)
  | Time for this iteration                    :        0.063 s           0.062 s
  | Charge density update                      :        0.018 s           0.017 s
  | Density mixing                             :        0.002 s           0.002 s
  | Hartree multipole update                   :        0.004 s           0.003 s
  | Hartree multipole summation                :        0.015 s           0.016 s
  | Integration                                :        0.022 s           0.022 s
  | Solution of K.-S. eqns.                    :        0.001 s           0.001 s
  | Total energy evaluation                    :        0.000 s           0.001 s
------------------------------------------------------------

------------------------------------------------------------
          Begin self-consistency iteration #    7

  Date     :  20190722, Time     :  143613.356
------------------------------------------------------------
  Evaluating new KS density.
  Integration grid: deviation in total charge (<rho> - N_e) =   1.278977E-13
  Pulay mixing of updated and previous charge densities.

  Evaluating partitioned Hartree potential by multipole expansion.
  | Analytical far-field extrapolation by fixed multipoles:
  | Hartree multipole sum: apparent total charge =  -0.251647E-06
  Summing up the Hartree potential.
  Time summed over all CPUs for potential: real work        0.110 s, elapsed        0.113 s
  | RMS charge density error from multipole expansion :   0.651432E-03

  Integrating Hamiltonian matrix: batch-based integration.
  Time summed over all CPUs for integration: real work        0.169 s, elapsed        0.177 s

  Updating Kohn-Sham eigenvalues, eigenvectors, occupation numbers, and Fermi level.
  Solving generalized eigenproblem
  Updating Kohn-Sham eigenvalues and eigenfunctions.
  Solving real generalised eigenvalue problem by standard LAPACK (fast)
  Determining occupation numbers for Kohn-Sham eigenstates.
  | Chemical potential (Fermi level) in eV                 : -.50591725E+01
  | Error in electron count due to remaining E_F inaccuracy: 0.85265128E-13
  | Maximum occupation number of highest empty state:  0.00E+00

  Highest occupied state (VBM) at     -5.05917295 eV
  | Occupation number:      1.00005465

  Lowest unoccupied state (CBM) at    -5.05917198 eV
  | Occupation number:      0.99994535

  Overall HOMO-LUMO gap:      0.00000097 eV.

  Total energy components:
  | Sum of eigenvalues            :         -82.87536610 Ha       -2255.15345239 eV
  | XC energy correction          :         -16.91864658 Ha        -460.37979724 eV
  | XC potential correction       :          21.75458126 Ha         591.97227521 eV
  | Free-atom electrostatic energy:         -71.49642835 Ha       -1945.51680219 eV
  | Hartree energy correction     :          -0.66438272 Ha         -18.07877375 eV
  | Entropy correction            :          -0.00020734 Ha          -0.00564190 eV
  | ---------------------------
  | Total energy                  :        -150.20024249 Ha       -4087.15655037 eV
  | Total energy, T -> 0          :        -150.20044983 Ha       -4087.16219226 eV  <-- do not rely on this value for anything but (periodic) metals
  | Electronic free energy        :        -150.20065716 Ha       -4087.16783416 eV

  Derived energy quantities:
  | Kinetic energy                :         150.21993194 Ha        4087.69232763 eV
  | Electrostatic energy          :        -283.50152785 Ha       -7714.46908076 eV
  | Energy correction for multipole
  | error in Hartree potential    :          -0.00059886 Ha          -0.01629592 eV
  | Sum of eigenvalues per atom                           :       -1127.57672620 eV
  | Total energy (T->0) per atom                          :       -2043.58109613 eV  <-- do not rely on this value for anything but (periodic) metals
  | Electronic free energy per atom                       :       -2043.58391708 eV

  Self-consistency convergence accuracy:
  | Change of charge density      :  0.6274E-04
  | Change of sum of eigenvalues  :  0.3296E-03 eV
  | Change of total energy        :  0.1349E-08 eV

  Electronic self-consistency reached - switching on the force computation.

  End self-consistency iteration #     7       :  max(cpu_time)    wall_clock(cpu1)
  | Time for this iteration                    :        0.061 s           0.061 s
  | Charge density & force component update    :        0.017 s           0.017 s
  | Density mixing                             :        0.002 s           0.001 s
  | Hartree multipole update                   :        0.003 s           0.003 s
  | Hartree multipole summation                :        0.015 s           0.015 s
  | Integration                                :        0.023 s           0.023 s
  | Solution of K.-S. eqns.                    :        0.001 s           0.001 s
  | Total energy evaluation                    :        0.000 s           0.001 s
------------------------------------------------------------

------------------------------------------------------------
          Begin self-consistency iteration #    8

  Date     :  20190722, Time     :  143613.421
------------------------------------------------------------
  Evaluating new KS density.
  Integration grid: deviation in total charge (<rho> - N_e) =  -2.131628E-14
  Pulay mixing of updated and previous charge densities.

  Evaluating partitioned Hartree potential by multipole expansion.
  | Analytical far-field extrapolation by fixed multipoles:
  | Hartree multipole sum: apparent total charge =  -0.251659E-06
  Summing up the Hartree potential.
  Time summed over all CPUs for potential: real work        0.285 s, elapsed        0.305 s
  | RMS charge density error from multipole expansion :   0.651420E-03

  Integrating Hamiltonian matrix: batch-based integration.
  Time summed over all CPUs for integration: real work        0.168 s, elapsed        0.177 s

  Updating Kohn-Sham eigenvalues, eigenvectors, occupation numbers, and Fermi level.
  Solving generalized eigenproblem
  Updating Kohn-Sham eigenvalues and eigenfunctions.
  Solving real generalised eigenvalue problem by standard LAPACK (fast)
  Determining occupation numbers for Kohn-Sham eigenstates.
  | Chemical potential (Fermi level) in eV                 : -.50590417E+01
  | Error in electron count due to remaining E_F inaccuracy: 0.00000000E+00
  | Maximum occupation number of highest empty state:  0.00E+00

  Highest occupied state (VBM) at     -5.05904175 eV
  | Occupation number:      1.00000026

  Lowest unoccupied state (CBM) at    -5.05904174 eV
  | Occupation number:      0.99999974

  Overall HOMO-LUMO gap:      0.00000000 eV.

  Total energy components:
  | Sum of eigenvalues            :         -82.87526595 Ha       -2255.15072734 eV
  | XC energy correction          :         -16.91865606 Ha        -460.38005519 eV
  | XC potential correction       :          21.75459379 Ha         591.97261622 eV
  | Free-atom electrostatic energy:         -71.49642835 Ha       -1945.51680219 eV
  | Hartree energy correction     :          -0.66448592 Ha         -18.08158187 eV
  | Entropy correction            :          -0.00020734 Ha          -0.00564190 eV
  | ---------------------------
  | Total energy                  :        -150.20024249 Ha       -4087.15655037 eV
  | Total energy, T -> 0          :        -150.20044983 Ha       -4087.16219226 eV  <-- do not rely on this value for anything but (periodic) metals
  | Electronic free energy        :        -150.20065716 Ha       -4087.16783416 eV

  Derived energy quantities:
  | Kinetic energy                :         150.21998585 Ha        4087.69379465 eV
  | Electrostatic energy          :        -283.50157229 Ha       -7714.47028983 eV
  | Energy correction for multipole
  | error in Hartree potential    :          -0.00059887 Ha          -0.01629612 eV
  | Sum of eigenvalues per atom                           :       -1127.57536367 eV
  | Total energy (T->0) per atom                          :       -2043.58109613 eV  <-- do not rely on this value for anything but (periodic) metals
  | Electronic free energy per atom                       :       -2043.58391708 eV

  atomic forces [eV/Ang]:
  -----------------------
  atom #    1
   Hellmann-Feynman              :  0.273708E-10  0.251582E-10 -0.249195E+02
   Ionic forces                  :  0.000000E+00  0.000000E+00  0.000000E+00
   Multipole                     :  0.108903E-12  0.151268E-12  0.453842E-01
   Pulay + GGA                   :  0.000000E+00  0.000000E+00  0.000000E+00
   ----------------------------------------------------------------
   Total forces(   1)            :  0.274797E-10  0.253095E-10 -0.248741E+02
  atom #    2
   Hellmann-Feynman              : -0.263474E-11  0.392031E-10  0.249195E+02
   Ionic forces                  :  0.000000E+00  0.000000E+00  0.000000E+00
   Multipole                     : -0.574625E-13 -0.996036E-13 -0.453842E-01
   Pulay + GGA                   :  0.000000E+00  0.000000E+00  0.000000E+00
   ----------------------------------------------------------------
   Total forces(   2)            : -0.269221E-11  0.391035E-10  0.248741E+02


  Self-consistency convergence accuracy:
  | Change of charge density      :  0.2196E-04
  | Change of sum of eigenvalues  :  0.2725E-02 eV
  | Change of total energy        :  0.1482E-08 eV
  | Change of forces              :  0.2487E+02 eV/A

  End self-consistency iteration #     8       :  max(cpu_time)    wall_clock(cpu1)
  | Time for this iteration                    :        0.090 s           0.088 s
  | Charge density & force component update    :        0.017 s           0.015 s
  | Density mixing                             :        0.001 s           0.002 s
  | Hartree multipole update                   :        0.005 s           0.003 s
  | Hartree multipole summation                :        0.039 s           0.039 s
  | Integration                                :        0.023 s           0.023 s
  | Solution of K.-S. eqns.                    :        0.001 s           0.002 s
  | Total energy evaluation                    :        0.003 s           0.004 s
------------------------------------------------------------

------------------------------------------------------------
          Begin self-consistency iteration #    9

  Date     :  20190722, Time     :  143613.513
------------------------------------------------------------
  Evaluating new KS density and force components.
  Integration grid: deviation in total charge (<rho> - N_e) =   5.329071E-14
  Pulay mixing of updated and previous charge densities.

  Evaluating partitioned Hartree potential by multipole expansion.
  | Analytical far-field extrapolation by fixed multipoles:
  | Hartree multipole sum: apparent total charge =  -0.251654E-06
  Summing up the Hartree potential.
  Time summed over all CPUs for potential: real work        0.280 s, elapsed        0.290 s
  | RMS charge density error from multipole expansion :   0.651463E-03

  Integrating Hamiltonian matrix: batch-based integration.
  Time summed over all CPUs for integration: real work        0.166 s, elapsed        0.173 s

  Updating Kohn-Sham eigenvalues, eigenvectors, occupation numbers, and Fermi level.
  Solving generalized eigenproblem
  Updating Kohn-Sham eigenvalues and eigenfunctions.
  Solving real generalised eigenvalue problem by standard LAPACK (fast)
  Determining occupation numbers for Kohn-Sham eigenstates.
  | Chemical potential (Fermi level) in eV                 : -.50590126E+01
  | Error in electron count due to remaining E_F inaccuracy: 0.85265128E-13
  | Maximum occupation number of highest empty state:  0.00E+00

  Highest occupied state (VBM) at     -5.05901262 eV
  | Occupation number:      1.00000000

  Lowest unoccupied state (CBM) at    -5.05901262 eV
  | Occupation number:      1.00000000

  Overall HOMO-LUMO gap:      0.00000000 eV.

  Total energy components:
  | Sum of eigenvalues            :         -82.87524652 Ha       -2255.15019857 eV
  | XC energy correction          :         -16.91865780 Ha        -460.38010256 eV
  | XC potential correction       :          21.75459607 Ha         591.97267835 eV
  | Free-atom electrostatic energy:         -71.49642835 Ha       -1945.51680219 eV
  | Hartree energy correction     :          -0.66450589 Ha         -18.08212541 eV
  | Entropy correction            :          -0.00020734 Ha          -0.00564190 eV
  | ---------------------------
  | Total energy                  :        -150.20024249 Ha       -4087.15655037 eV
  | Total energy, T -> 0          :        -150.20044983 Ha       -4087.16219227 eV  <-- do not rely on this value for anything but (periodic) metals
  | Electronic free energy        :        -150.20065716 Ha       -4087.16783417 eV

  Derived energy quantities:
  | Kinetic energy                :         150.21997732 Ha        4087.69356236 eV
  | Electrostatic energy          :        -283.50156201 Ha       -7714.47001017 eV
  | Energy correction for multipole
  | error in Hartree potential    :          -0.00059888 Ha          -0.01629646 eV
  | Sum of eigenvalues per atom                           :       -1127.57509928 eV
  | Total energy (T->0) per atom                          :       -2043.58109614 eV  <-- do not rely on this value for anything but (periodic) metals
  | Electronic free energy per atom                       :       -2043.58391708 eV

  atomic forces [eV/Ang]:
  -----------------------
  atom #    1
   Hellmann-Feynman              : -0.371253E-10  0.154791E-10 -0.249184E+02
   Ionic forces                  :  0.000000E+00  0.000000E+00  0.000000E+00
   Multipole                     : -0.430614E-13 -0.939273E-13  0.453893E-01
   Pulay + GGA                   : -0.323700E-11 -0.830088E-11  0.148729E+02
   ----------------------------------------------------------------
   Total forces(   1)            : -0.404053E-10  0.708430E-11 -0.100001E+02
  atom #    2
   Hellmann-Feynman              :  0.240071E-10 -0.475155E-10  0.249184E+02
   Ionic forces                  :  0.000000E+00  0.000000E+00  0.000000E+00
   Multipole                     : -0.936949E-13 -0.331111E-12 -0.453893E-01
   Pulay + GGA                   : -0.215657E-11 -0.791838E-11 -0.148729E+02
   ----------------------------------------------------------------
   Total forces(   2)            :  0.217569E-10 -0.557650E-10  0.100001E+02


  Self-consistency convergence accuracy:
  | Change of charge density      :  0.4460E-05
  | Change of sum of eigenvalues  :  0.5288E-03 eV
  | Change of total energy        : -0.7292E-08 eV
  | Change of forces              :  0.1138E-02 eV/A

  End self-consistency iteration #     9       :  max(cpu_time)    wall_clock(cpu1)
  | Time for this iteration                    :        0.118 s           0.118 s
  | Charge density & force component update    :        0.051 s           0.050 s
  | Density mixing                             :        0.002 s           0.002 s
  | Hartree multipole update                   :        0.004 s           0.003 s
  | Hartree multipole summation                :        0.037 s           0.037 s
  | Integration                                :        0.022 s           0.022 s
  | Solution of K.-S. eqns.                    :        0.001 s           0.002 s
  | Total energy evaluation                    :        0.001 s           0.001 s
------------------------------------------------------------

------------------------------------------------------------
          Begin self-consistency iteration #   10

  Date     :  20190722, Time     :  143613.634
------------------------------------------------------------
  Evaluating new KS density and force components.
  Integration grid: deviation in total charge (<rho> - N_e) =  -4.263256E-14
  Pulay mixing of updated and previous charge densities.

  Evaluating partitioned Hartree potential by multipole expansion.
  | Analytical far-field extrapolation by fixed multipoles:
  | Hartree multipole sum: apparent total charge =  -0.251655E-06
  Summing up the Hartree potential.
  Time summed over all CPUs for potential: real work        0.281 s, elapsed        0.305 s
  | RMS charge density error from multipole expansion :   0.651463E-03

  Integrating Hamiltonian matrix: batch-based integration.
  Time summed over all CPUs for integration: real work        0.169 s, elapsed        0.196 s

  Updating Kohn-Sham eigenvalues, eigenvectors, occupation numbers, and Fermi level.
  Solving generalized eigenproblem
  Updating Kohn-Sham eigenvalues and eigenfunctions.
  Solving real generalised eigenvalue problem by standard LAPACK (fast)
  Determining occupation numbers for Kohn-Sham eigenstates.
  | Chemical potential (Fermi level) in eV                 : -.50590112E+01
  | Error in electron count due to remaining E_F inaccuracy: -.85265128E-13
  | Maximum occupation number of highest empty state:  0.00E+00

  Highest occupied state (VBM) at     -5.05901117 eV
  | Occupation number:      1.00000001

  Lowest unoccupied state (CBM) at    -5.05901117 eV
  | Occupation number:      0.99999999

  Overall HOMO-LUMO gap:      0.00000000 eV.

  Total energy components:
  | Sum of eigenvalues            :         -82.87524527 Ha       -2255.15016445 eV
  | XC energy correction          :         -16.91865795 Ha        -460.38010673 eV
  | XC potential correction       :          21.75459627 Ha         591.97268379 eV
  | Free-atom electrostatic energy:         -71.49642835 Ha       -1945.51680219 eV
  | Hartree energy correction     :          -0.66450720 Ha         -18.08216080 eV
  | Entropy correction            :          -0.00020734 Ha          -0.00564190 eV
  | ---------------------------
  | Total energy                  :        -150.20024249 Ha       -4087.15655037 eV
  | Total energy, T -> 0          :        -150.20044983 Ha       -4087.16219227 eV  <-- do not rely on this value for anything but (periodic) metals
  | Electronic free energy        :        -150.20065716 Ha       -4087.16783417 eV

  Derived energy quantities:
  | Kinetic energy                :         150.21997832 Ha        4087.69358977 eV
  | Electrostatic energy          :        -283.50156286 Ha       -7714.47003342 eV
  | Energy correction for multipole
  | error in Hartree potential    :          -0.00059888 Ha          -0.01629649 eV
  | Sum of eigenvalues per atom                           :       -1127.57508222 eV
  | Total energy (T->0) per atom                          :       -2043.58109614 eV  <-- do not rely on this value for anything but (periodic) metals
  | Electronic free energy per atom                       :       -2043.58391708 eV

  atomic forces [eV/Ang]:
  -----------------------
  atom #    1
   Hellmann-Feynman              :  0.326083E-11  0.147578E-10 -0.249183E+02
   Ionic forces                  :  0.000000E+00  0.000000E+00  0.000000E+00
   Multipole                     :  0.174635E-12  0.750978E-14  0.453894E-01
   Pulay + GGA                   :  0.665098E-11  0.849927E-12  0.148729E+02
   ----------------------------------------------------------------
   Total forces(   1)            :  0.100864E-10  0.156152E-10 -0.100001E+02
  atom #    2
   Hellmann-Feynman              : -0.816752E-11  0.136067E-10  0.249183E+02
   Ionic forces                  :  0.000000E+00  0.000000E+00  0.000000E+00
   Multipole                     :  0.577729E-15  0.427547E-14 -0.453894E-01
   Pulay + GGA                   : -0.623137E-11  0.839508E-11 -0.148729E+02
   ----------------------------------------------------------------
   Total forces(   2)            : -0.143983E-10  0.220060E-10  0.100001E+02


  Self-consistency convergence accuracy:
  | Change of charge density      :  0.1945E-06
  | Change of sum of eigenvalues  :  0.3412E-04 eV
  | Change of total energy        : -0.7038E-10 eV
  | Change of forces              :  0.3548E-04 eV/A

  Writing Kohn-Sham eigenvalues.

  State    Occupation    Eigenvalue [Ha]    Eigenvalue [eV]
      1       2.00000         -18.889630         -514.01299
      2       2.00000         -18.889404         -514.00683
      3       2.00000          -1.269640          -34.54866
      4       2.00000          -0.700708          -19.06722
      5       2.00000          -0.503622          -13.70425
      6       2.00000          -0.503622          -13.70425
      7       2.00000          -0.495082          -13.47188
      8       1.00000          -0.185915           -5.05901
      9       1.00000          -0.185915           -5.05901
     10       0.00000           0.098728            2.68652
     11       0.00000           0.105717            2.87671
     12       0.00000           0.132979            3.61854
     13       0.00000           0.132979            3.61854
     14       0.00000           0.210325            5.72323

  Highest occupied state (VBM) at     -5.05901117 eV
  | Occupation number:      1.00000001

  Lowest unoccupied state (CBM) at    -5.05901117 eV
  | Occupation number:      0.99999999

  Overall HOMO-LUMO gap:      0.00000000 eV.

  Self-consistency cycle converged.

  End self-consistency iteration #    10       :  max(cpu_time)    wall_clock(cpu1)
  | Time for this iteration                    :        0.124 s           0.124 s
  | Charge density & force component update    :        0.051 s           0.050 s
  | Density mixing                             :        0.002 s           0.002 s
  | Hartree multipole update                   :        0.003 s           0.003 s
  | Hartree multipole summation                :        0.039 s           0.039 s
  | Integration                                :        0.025 s           0.025 s
  | Solution of K.-S. eqns.                    :        0.001 s           0.002 s
  | Total energy evaluation                    :        0.002 s           0.001 s
------------------------------------------------------------
  Writing cluster restart information to file restart
  ------------------------------------------------------------
   Computing monopole / dipole moments for complete molecule:
  | Total electronic charge [e]         :          0.159999999999999E+02
  | Total ionic charge [e]              :          0.160000000000000E+02
  | Total charge [e]                    :          0.532907051820075E-13
  | Total dipole moment [eAng]          :          0.187414006525000E-13        -0.206067281469102E-13         0.263202115746708E-13
  | Absolute dipole moment              :          0.383227201627654E-13 eAng              /                   0.184043182297771E-12 Debye  .
  Removing unitary transformations (pure translations, rotations) from forces on atoms.
  Atomic forces before filtering:
  | Net force on center of mass :  -0.431186E-11  0.376213E-10  0.816101E-11 eV/A
  | Net torque on center of mass:  -0.357975E-11 -0.137149E-10  0.000000E+00 eV
  Atomic forces after filtering:
  | Net force on center of mass :  -0.129808E-26  0.259615E-26 -0.285450E-14 eV/A
  | Net torque on center of mass:  -0.145421E-26 -0.727105E-27  0.000000E+00 eV

  Energy and forces in a compact form:
  | Total energy uncorrected      :         -0.408715655037477E+04 eV
  | Total energy corrected        :         -0.408716219227048E+04 eV  <-- do not rely on this value for anything but (periodic) metals
  | Electronic free energy        :         -0.408716783416619E+04 eV
  Total atomic forces (unitary forces cleaned) [eV/Ang]:
  |   1          0.000000000000000E+00          0.000000000000000E+00         -0.100000766175412E+02
  |   2         -0.129807539725224E-26          0.259615079450449E-26          0.100000766175412E+02

  ------------------------------------ 
  Start decomposition of the XC Energy 
  ------------------------------------ 
  Hartree-Fock part   :          0.000000000 Ha              0.000000000 eV
  ------------------------------------ 
  X Energy            :        -16.378170995 Ha           -445.672708349 eV
  C Energy GGA        :         -0.540486956 Ha            -14.707398378 eV
  Total XC Energy     :        -16.918657951 Ha           -460.380106727 eV
  LDA X and C from self-consistent density 
  X Energy LDA        :        -14.883705660 Ha           -405.006237497 eV
  C Energy LDA        :         -1.116159764 Ha            -30.372252499 eV
  ------------------------------------ 
  End decomposition of the XC Energy 
  ------------------------------------ 

------------------------------------------------------------------------------
  Final output of selected total energy values:

  The following output summarizes some interesting total energy values
  at the end of a run (AFTER all relaxation, molecular dynamics, etc.).

  | Total energy of the DFT / Hartree-Fock s.c.f. calculation      :          -4087.156550375 eV
  | Final zero-broadening corrected energy (caution - metals only) :          -4087.162192270 eV
  | For reference only, the value of 1 Hartree used in FHI-aims is :             27.211384500 eV

  Before relying on these values, please be sure to understand exactly which
  total energy value is referred to by a given number. Different objects may
  all carry the same name 'total energy'. Definitions:

  Total energy of the DFT / Hartree-Fock s.c.f. calculation:
  | Note that this energy does not include ANY quantities calculated after the
  | s.c.f. cycle, in particular not ANY RPA, MP2, etc. many-body perturbation terms.

  Final zero-broadening corrected energy:
  | For metallic systems only, a broadening of the occupation numbers at the Fermi
  | level can be extrapolated back to zero broadening by an electron-gas inspired
  | formula. For all systems that are not real metals, this value can be
  | meaningless and should be avoided.

------------------------------------------------------------------------------
  Methods described in the following list of references were used in this FHI-aims run.
  If you publish the results, please make sure to cite these reference if they apply.
  FHI-aims is an academic code, and for our developers (often, Ph.D. students
  and postdocs), scientific credit in the community is essential.
  Thank you for helping us!

  For any use of FHI-aims, please cite:

    Volker Blum, Ralf Gehrke, Felix Hanke, Paula Havu, Ville Havu,
    Xinguo Ren, Karsten Reuter, and Matthias Scheffler
    'Ab initio molecular simulations with numeric atom-centered orbitals'
    Computer Physics Communications 180, 2175-2196 (2009)
    http://dx.doi.org/10.1016/j.cpc.2009.06.022


  For the real-space grid partitioning and parallelization used in this calculation, please cite:

    Ville Havu, Volker Blum, Paula Havu, and Matthias Scheffler,
    'Efficient O(N) integration for all-electron electronic structure calculation'
    'using numerically tabulated basis functions'
    Journal of Computational Physics 228, 8367-8379 (2009).
    http://dx.doi.org/10.1016/j.jcp.2009.08.008

  Of course, there are many other important community references, e.g., those cited in the
  above references. Our list is limited to references that describe implementations in the
  FHI-aims code. The reason is purely practical (length of this list) - please credit others as well.

------------------------------------------------------------
          Leaving FHI-aims.
          Date     :  20190722, Time     :  143614.087

          Computational steps:
          | Number of self-consistency cycles          :           10

          Detailed time accounting                     :  max(cpu_time)    wall_clock(cpu1)
          | Total time                                 :        1.369 s           1.407 s
          | Preparation time                           :        0.149 s           0.168 s
          | Grid partitioning                          :        0.017 s           0.017 s
          | Preloading free-atom quantities on grid    :        0.018 s           0.018 s
          | Free-atom superposition energy             :        0.005 s           0.004 s
          | Total time for integrations                :        0.261 s           0.261 s
          | Total time for solution of K.-S. equations :        0.019 s           0.022 s
          | Total time for density & force components  :        0.235 s           0.229 s
          | Total time for mixing                      :        0.015 s           0.014 s
          | Total time for Hartree multipole update    :        0.038 s           0.031 s
          | Total time for Hartree multipole sum       :        0.222 s           0.222 s
          | Total time for total energy evaluation     :        0.009 s           0.013 s

          Have a nice day.
------------------------------------------------------------
