  MPI-parallelism will be employed.
------------------------------------------------------------
          Invoking FHI-aims ...
          Version 160328_3
          Compiled on 2019/06/10 at 14:55:49 on host taito-login3.csc.fi.

          When using FHI-aims, please cite the following reference:

          Volker Blum, Ralf Gehrke, Felix Hanke, Paula Havu,
          Ville Havu, Xinguo Ren, Karsten Reuter, and Matthias Scheffler,
          'Ab Initio Molecular Simulations with Numeric Atom-Centered Orbitals',
          Computer Physics Communications 180, 2175-2196 (2009)

          For any questions about FHI-aims, please visit the aimsclub website
          with its forums and wiki. Contributions to both the forums and the
          wiki are warmly encouraged - they are for you, and everyone is welcome there.

------------------------------------------------------------

  Date     :  20190722, Time     :  143612.259
  Time zero on CPU 1             :   0.639900000000000E-01  s.
  Internal wall clock time zero  :           333038172.259  s.

  Using        8 parallel tasks.
  Task        0 on host c672 reporting.
  Task        1 on host c672 reporting.
  Task        2 on host c672 reporting.
  Task        3 on host c672 reporting.
  Task        4 on host c672 reporting.
  Task        5 on host c672 reporting.
  Task        6 on host c672 reporting.
  Task        7 on host c672 reporting.

  Performing system and environment tests:
  | Environment variable OMP_NUM_THREADS correctly set to 1.
  | Maximum stacksize for task 0: unlimited
  | Maximum stacksize for task 1: unlimited
  | Maximum stacksize for task 2: unlimited
  | Maximum stacksize for task 3: unlimited
  | Maximum stacksize for task 4: unlimited
  | Maximum stacksize for task 5: unlimited
  | Maximum stacksize for task 6: unlimited
  | Maximum stacksize for task 7: unlimited
  | Current stacksize for task 0: 1024 [Mb]
  | Current stacksize for task 1: 1024 [Mb]
  | Current stacksize for task 2: 1024 [Mb]
  | Current stacksize for task 3: 1024 [Mb]
  | Current stacksize for task 4: 1024 [Mb]
  | Current stacksize for task 5: 1024 [Mb]
  | Current stacksize for task 6: 1024 [Mb]
  | Current stacksize for task 7: 1024 [Mb]
  | Checking for scalapack...
  | No scalapack compiled in.

  Obtaining array dimensions for all initial allocations:
  
  -----------------------------------------------------------------------
  Parsing control.in (first pass over file, find array dimensions only).
  The contents of control.in will be repeated verbatim below
  unless switched off by setting 'verbatim_writeout .false.' .
  in the first line of control.in .
  -----------------------------------------------------------------------
  
    #  Physical model settings
    #
  
    xc                            pbe
    charge                        0.0
    relativistic                  none
  #  default_initial_moment        0.0
    spin                          none
  #  vdw_correction_hirshfeld
  
    #  SCF convergence settings
    #
  
    sc_accuracy_rho               1E-4
    sc_accuracy_eev               1E-2
    sc_accuracy_etot              1E-8
    sc_iter_limit                 100
  
    #  Occupation settings
    #
  
    restart                       restart
  #  force_occupation_projector      21 1 1.0 20 21 # ion 0
  #  force_occupation_projector      20 1 1.0 20 21 # ion 1
  #  force_occupation_projector      19 1 1.0 18 19 # ion 2
  #  force_occupation_projector      18 1 1.0 18 19 # ion 3
  #  force_occupation_projector      17 1 1.0 17 17 # ion 4
  
    #  Relaxation
    #
  
    ######relax_geometry                bfgs    1.e-4
  
  
  ################################################################################
  #
  #  FHI-aims code project
  #  VB, Fritz-Haber Institut, 2007
  #
  #  Suggested "safe" defaults for O atom (to be pasted into control.in file)
  #
  ################################################################################
    species        O
  #     global species definitions
      nucleus             8
      mass                15.9994
  #
      l_hartree           8
  #
      cut_pot             4.0  2.0  1.0
      basis_dep_cutoff    0.d0
  #
      radial_base         36 7.0
      radial_multiplier   2
       angular_grids specified
        division   0.4087  110
        division   0.5181  194
        division   0.6184  302
        division   0.7315  434
        division   0.7934  590
  #      division   0.9656  770
  #      division   1.4041  974
  #      outer_grid 974
        outer_grid 590
  ################################################################################
  #
  #  Definition of "minimal" basis
  #
  ################################################################################
  #     valence basis states
      valence      2  s   2.
      valence      2  p   4.
  #     ion occupancy
      ion_occ      2  s   1.
      ion_occ      2  p   3.
  ################################################################################
  #
  #  Suggested additional basis functions. For production calculations,
  #  uncomment them one after another (the most important basis functions are
  #  listed first).
  #
  #  Constructed for dimers: 1.0 A, 1.208 A, 1.5 A, 2.0 A, 3.0 A
  #
  ################################################################################
  #  "First tier" - improvements: -699.05 meV to -159.38 meV
       hydro 2 p 1.8
       hydro 3 d 7.6
       hydro 3 s 6.4
  #  "Second tier" - improvements: -49.91 meV to -5.39 meV
       hydro 4 f 11.6
       hydro 3 p 6.2
       hydro 3 d 5.6
       hydro 5 g 17.6
       hydro 1 s 0.75
  #  "Third tier" - improvements: -2.83 meV to -0.50 meV
  #     ionic 2 p auto
  #     hydro 4 f 10.8
  #     hydro 4 d 4.7
  #     hydro 2 s 6.8
  #  "Fourth tier" - improvements: -0.40 meV to -0.12 meV
  #     hydro 3 p 5
  #     hydro 3 s 3.3
  #     hydro 5 g 15.6
  #     hydro 4 f 17.6
  #     hydro 4 d 14
  # Further basis functions - -0.08 meV and below
  #     hydro 3 s 2.1
  #     hydro 4 d 11.6
  #     hydro 3 p 16
  #     hydro 2 s 17.2
  compute_forces .true.
  final_forces_cleaned .true.
  output dipole
  
  -----------------------------------------------------------------------
  Completed first pass over input file control.in .
  -----------------------------------------------------------------------
  
  
  -----------------------------------------------------------------------
  Parsing geometry.in (first pass over file, find array dimensions only).
  The contents of geometry.in will be repeated verbatim below
  unless switched off by setting 'verbatim_writeout .false.' .
  in the first line of geometry.in .
  -----------------------------------------------------------------------
  
  #
  # temporary structure-file for finite-difference calculation of forces
  # displacement   0.0025 of \# atom     0 direction     2
  #
  atom    0.00000000   -0.00000000    0.04485920   O
  atom   -0.00000000   -0.00000000    1.16514080   O
  
  -----------------------------------------------------------------------
  Completed first pass over input file geometry.in .
  -----------------------------------------------------------------------
  

  Basic array size parameters:
  | Number of species                 :        1
  | Number of atoms                   :        2
  | Max. basis fn. angular momentum   :        4
  | Max. atomic/ionic basis occupied n:        2
  | Max. number of basis fn. types    :        2
  | Max. radial fns per species/type  :        8
  | Max. logarithmic grid size        :     1301
  | Max. radial integration grid size :       73
  | Max. angular integration grid size:      590
  | Max. angular grid division number :        8
  | Radial grid for Hartree potential :     1301
  | Number of spin channels           :        1

------------------------------------------------------------
          Reading file control.in.
------------------------------------------------------------
  XC: Using PBE gradient-corrected functionals.
  Charge =   0.000000E+00: Neutral system requested explicitly.
  Non-relativistic treatment of kinetic energy.
  Spin treatment: No spin polarisation.
  Convergence accuracy of self-consistent charge density:  0.1000E-03
  Convergence accuracy of sum of eigenvalues:  0.1000E-01
  Convergence accuracy of total energy:  0.1000E-07
  Maximum number of s.-c. iterations  :   100
  Restart file specified as : restart
  | This file does not exist, will create it after the first complete scf cycle.
 
  Reading configuration options for species O                   .
  | Found nuclear charge :   8.0000
  | Found atomic mass :    15.9994000000000      amu
  | Found l_max for Hartree potential  :   8
  | Found cutoff potl. onset [A], width [A], scale factor :    4.00000    2.00000    1.00000
  | Threshold for basis-dependent cutoff potential is   0.000000E+00
  | Found data for basic radial integration grid :    36 points, outermost radius =    7.000 A
  | Found multiplier for basic radial grid :   2
  | Found angular grid specification: user-specified.
  | Specified grid contains     6 separate shells.
  | Check grid settings after all constraints further below.
  | Found free-atom valence shell :  2 s   2.000
  | Found free-atom valence shell :  2 p   4.000
  | No ionic wave fns used. Skipping ion_occ.
  | No ionic wave fns used. Skipping ion_occ.
  | Found hydrogenic basis function :  2 p   1.800
  | Found hydrogenic basis function :  3 d   7.600
  | Found hydrogenic basis function :  3 s   6.400
  | Found hydrogenic basis function :  4 f  11.600
  | Found hydrogenic basis function :  3 p   6.200
  | Found hydrogenic basis function :  3 d   5.600
  | Found hydrogenic basis function :  5 g  17.600
  | Found hydrogenic basis function :  1 s   0.750
  Species O                   : Missing cutoff potential type.
  Defaulting to exp(1/x)/(1-x)^2 type cutoff potential.
  Species O : No 'logarithmic' tag. Using default grid for free atom:
  | Default logarithmic grid data [bohr] : 0.1000E-03 0.1000E+03 0.1012E+01
  Species O : On-site basis accuracy parameter (for Gram-Schmidt orthonormalisation) not specified.
  Using default value basis_acc =  0.1000000E-03.
  Species O                   : Using default innermost maximum threshold i_radial=  2 for radial functions.
  Species O                   : Default cutoff onset for free atom density etc. : 0.40000000E+01 AA.
  Species O                   : Basic radial grid will be enhanced according to radial_multiplier =   2, to contain    73 grid points.
  Forces will be computed.
  Cleaning forces before final output.
  Dipole moment will be written out.
 
  Finished reading input file 'control.in'. Consistency checks are next.
 
  Target number of points in a grid batch is not set. Defaulting to  100
  Method for grid partitioning is not set. Defaulting to parallel hash+maxmin partitioning.
  Batch size limit is not set. Defaulting to    200
  By default, will store active basis functions for each batch.
  If in need of memory, prune_basis_once .false. can be used to disable this option.
  communication_type for Hartree potential was not specified.
  Defaulting to calc_hartree .
  Defaulting to Pulay charge density mixer.
  Pulay mixer: Number of relevant iterations not set.
  Defaulting to    8 iterations.
  Pulay mixer: Number of initial linear mixing iterations not set.
  Defaulting to    0 iterations.
  Work space size for distributed Hartree potential not set.
  Defaulting to   0.200000E+03 MB.
  Mixing parameter for charge density mixing has not been set.
  Using default: charge_mix_param =     0.2000.
  Algorithm-dependent basis array size parameters:
  | n_max_pulay                         :        8
  Geometry relaxation not requested: no relaxation will be performed.
  Force calculation: scf convergence accuracy of forces not set.
  Defaulting to  0.1000E-03 eV/A.
  Handling of forces: Unphysical translation and rotation will be removed from forces.
  No accuracy limit for integral partition fn. given. Defaulting to  0.1000E-14.
  No threshold value for u(r) in integrations given. Defaulting to  0.1000E-05.
  No occupation type (smearing scheme) given. Defaulting to Gaussian broadening, width =  0.1000E-01 eV.
  No accuracy for occupation numbers given. Defaulting to  0.1000E-07.
  No threshold value for occupation numbers given. Defaulting to  0.0000E+00.
  No accuracy for fermi level given. Defaulting to  0.1000E-19.
  Maximum # of iterations to find E_F not set. Defaulting to  200.
  Preferred method for the eigenvalue solver ('KS_method') not specified in 'control.in'.
  Calling blacs routine to test compilation state
  The best choice would be 'elpa', but your version of FHI-aims is compiled without scalapack support.
  Defaulting to 'lapack_fast' instead (serial solution, time will not improve with more CPUs).
  Will not use alltoall communication since running on < 1024 CPUs.
  Threshold for basis singularities not set.
  Default threshold for basis singularities:  0.1000E-04
  partition_type (choice of integration weights) for integrals was not specified.
  | Using a version of the partition function of Stratmann and coworkers ('stratmann_smoother').
  | At each grid point, the set of atoms used to build the partition table is smoothly restricted to
  | only those atoms whose free-atom density would be non-zero at that grid point.
  Partitioning for Hartree potential was not defined. Using partition_type for integrals.
  | Adjusted default value of keyword multip_moments_threshold to:       0.10000000E-11
  | This value may affect high angular momentum components of the Hartree potential in periodic systems.
  No q(lm)/r^(l+1) cutoff set for long-range Hartree potential.
  | Using default value of  0.100000E-09 .
  | Verify using the multipole_threshold keyword.
  Defaulting to new monopole extrapolation.
  Density update method: automatic selection selected.
------------------------------------------------------------


------------------------------------------------------------
          Reading geometry description geometry.in.
------------------------------------------------------------
  Input structure read successfully.
  The structure contains        2 atoms,  and a total of         16.000 electrons.

  Input geometry:
  | No unit cell requested.
  | Atomic structure:
  |       Atom                x [A]            y [A]            z [A]
  |    1: Species O              0.000000         0.000000         0.044859
  |    2: Species O              0.000000         0.000000         1.165141
  |

  | The smallest distance between any two atoms is         1.12028160 AA.
  |
  | The first atom of this pair is atom number                      1 .
  | The second atom of this pair is atom number                     2 .

  Number of empty states per atom not set in control.in - providing a guess from actual geometry.
  | Total number of empty states used during s.c.f. cycle:        6
  If you use a very high smearing, use empty_states (per atom!) in control.in to increase this value.

  Structure-dependent array size parameters: 
  | Maximum number of distinct radial functions  :       11
  | Maximum number of basis functions            :       78
  | Number of Kohn-Sham states (occupied + empty):       14
------------------------------------------------------------

------------------------------------------------------------
          Preparing all fixed parts of the calculation.
------------------------------------------------------------
  Determining machine precision:
    2.225073858507201E-308
  Setting up grids for atomic and cluster calculations.

  Creating wave function, potential, and density for free atoms.

  Species: O

  List of occupied orbitals and eigenvalues:
    n    l              occ      energy [Ha]    energy [eV]
    1    0           2.0000       -18.898576      -514.2564
    2    0           2.0000        -0.878795       -23.9132
    2    1           4.0000        -0.332075        -9.0362

  Creating fixed part of basis set: Ionic, confined, hydrogenic.
 
  O                    hydrogenic:
 
  List of hydrogenic basis orbitals: 
    n    l      effective z      eigenvalue [eV]  inner max. [A]     outer max. [A]     outer radius [A]   
    2    1         1.800000       -11.0118           1.178562           1.178562           5.432602
    3    2         7.600000       -87.3183           0.624125           0.624125           4.634338
    3    0         6.400000       -61.9210           0.061167           1.081902           5.110480
    4    3        11.600000      -114.4239           0.731631           0.731631           4.522403
    3    1         6.200000       -58.1114           0.255680           1.030270           5.110480
    3    2         5.600000       -47.4083           0.847233           0.847233           5.173339
    5    4        17.600000      -168.5800           0.749740           0.749740           4.051222
    1    0         0.750000        -7.6499           0.705284           0.705284           5.366593
 

  Adding cutoff potential to free-atom effective potential.
  Creating atomic-like basis functions for current effective potential.

  Species O                   :

  List of atomic basis orbitals and eigenvalues:
    n    l      energy [Ha]    energy [eV]    outer radius [A]
    1    0       -18.898576      -514.2564       1.415765
    2    0        -0.878795       -23.9132       5.048385
    2    1        -0.332075        -9.0362       5.301386

  Assembling full basis from fixed parts.
  | Species O :   atomic orbital   1 s accepted.
  | Species O :   atomic orbital   2 s accepted.
  | Species O :    hydro orbital   3 s accepted.
  | Species O :    hydro orbital   1 s accepted.
  | Species O :   atomic orbital   2 p accepted.
  | Species O :    hydro orbital   2 p accepted.
  | Species O :    hydro orbital   3 p accepted.
  | Species O :    hydro orbital   3 d accepted.
  | Species O :    hydro orbital   3 d accepted.
  | Species O :    hydro orbital   4 f accepted.
  | Species O :    hydro orbital   5 g accepted.
 
  Basis size parameters after reduction:
  | Total number of radial functions:       11
  | Total number of basis functions :       78
 
  Testing on-site integration grid accuracy.
  |  Species  Function  <phi|h_atom|phi> (log., in eV)  <phi|h_atom|phi> (rad., in eV)
           1        1               -514.2564144315               -514.2564099626
           1        2                -23.9132357102                -23.9132356433
           1        3                 17.5398579759                 17.5398338425
           1        4                 14.5207278950                 14.5207740449
           1        5                 -9.0362392718                 -9.0362394845
           1        6                  7.9056275927                  7.9056237490
           1        7                 33.4201658992                 33.4201612015
           1        8                 45.8231952720                 45.8231953152
           1        9                 52.1937595491                 52.1937593440
           1       10                 85.4062894308                 85.4062894578
           1       11                142.0975701139                142.0975701391

  Preparing densities etc. for the partition functions (integrals / Hartree potential).

  Preparations completed.
  max(cpu_time)          :      0.143 s.
  Wall clock time (cpu1) :      0.166 s.
------------------------------------------------------------

------------------------------------------------------------
          Begin self-consistency loop: Initialization.

          Date     :  20190722, Time     :  143612.441
------------------------------------------------------------

  Initializing index lists of integration centers etc. from given atomic structure:
  | Number of centers in hartree potential         :         2
  | Number of centers in hartree multipole         :         2
  | Number of centers in electron density summation:         2
  | Number of centers in basis integrals           :         2
  | Number of centers in integrals                 :         2
  | Number of centers in hamiltonian               :         2
  Partitioning the integration grid into batches with parallel hashing+maxmin method.
  | Number of batches:      839
  | Maximal batch size:     118
  | Minimal batch size:      49
  | Average batch size:      63.480
  | Standard deviation of batch sizes:      18.156

  Integration load balanced across     8 MPI tasks.
  Work distribution over tasks is as follows:
  Task     0 has       6629 integration points.
  Task     1 has       6627 integration points.
  Task     2 has       6720 integration points.
  Task     3 has       6689 integration points.
  Task     4 has       6635 integration points.
  Task     5 has       6698 integration points.
  Task     6 has       6637 integration points.
  Task     7 has       6625 integration points.
  Initializing partition tables, free-atom densities, potentials, etc. across the integration grid (initialize_grid_storage).
  | initialize_grid_storage: Actual outermost partition radius vs. multipole_radius_free
  | (-- VB: in principle, multipole_radius_free should be larger, hence this output)
  | Species        1: Confinement radius =              6.000000000000000 AA, multipole_radius_free =              6.064445521808699 AA.
  | Species        1: outer_partition_radius set to              6.064445521808699 AA .
  | Original list of interatomic distances with           2 x          2 entries is created.
  | Net number of integration points:    53260
  | of which are non-zero points    :    49986
  Obtaining max. number of non-zero basis functions in each batch (get_n_compute_maxes).
  | Maximal number of non-zero basis functions:       78 in task     0
  | Maximal number of non-zero basis functions:       78 in task     1
  | Maximal number of non-zero basis functions:       78 in task     2
  | Maximal number of non-zero basis functions:       78 in task     3
  | Maximal number of non-zero basis functions:       78 in task     4
  | Maximal number of non-zero basis functions:       78 in task     5
  | Maximal number of non-zero basis functions:       78 in task     6
  | Maximal number of non-zero basis functions:       78 in task     7
  Selecting the method for density update.
  Loop over occupied states selected for charge density update.
  Integrating Hamiltonian matrix: batch-based integration.
  Time summed over all CPUs for integration: real work        0.176 s, elapsed        0.182 s
  Integrating overlap matrix.
  Time summed over all CPUs for integration: real work        0.064 s, elapsed        0.070 s

  Updating Kohn-Sham eigenvalues, eigenvectors, occupation numbers, and Fermi level.
  Solving generalized eigenproblem
  Updating Kohn-Sham eigenvalues and eigenfunctions.
  Transforming overlap matrix and checking for singularities.
  Overlap matrix is nonsingular:
  | Lowest eigenvalue:  0.183632E-03
  Solving real generalised eigenvalue problem by standard LAPACK (fast)
  Determining occupation numbers for Kohn-Sham eigenstates.
  | Chemical potential (Fermi level) in eV                 : -.60286237E+01
  | Error in electron count due to remaining E_F inaccuracy: 0.13914345E-08
  | Maximum occupation number of highest empty state:  0.00E+00

  Writing Kohn-Sham eigenvalues.

  State    Occupation    Eigenvalue [Ha]    Eigenvalue [eV]
      1       2.00000         -18.953773         -515.75841
      2       2.00000         -18.953550         -515.75233
      3       2.00000          -1.281828          -34.88031
      4       2.00000          -0.748930          -20.37943
      5       2.00000          -0.543860          -14.79919
      6       2.00000          -0.528900          -14.39210
      7       2.00000          -0.528900          -14.39210
      8       1.00000          -0.221548           -6.02862
      9       1.00000          -0.221548           -6.02862
     10       0.00000           0.089712            2.44118
     11       0.00000           0.095772            2.60609
     12       0.00000           0.127326            3.46472
     13       0.00000           0.127326            3.46472
     14       0.00000           0.201993            5.49651

  Highest occupied state (VBM) at     -6.02862375 eV
  | Occupation number:      1.00000000

  Lowest unoccupied state (CBM) at     2.44118112 eV
  | Occupation number:      0.00000000

  Overall HOMO-LUMO gap:      8.46980487 eV.
  Calculating total energy contributions from superposition of free atom densities.

  Total energy components:
  | Sum of eigenvalues            :         -83.52257803 Ha       -2272.76498532 eV
  | XC energy correction          :         -16.82262304 Ha        -457.76686371 eV
  | XC potential correction       :          21.62973590 Ha         588.57506018 eV
  | Free-atom electrostatic energy:         -71.49642846 Ha       -1945.51680515 eV
  | Hartree energy correction     :           0.00000000 Ha           0.00000000 eV
  | Entropy correction            :          -0.00020734 Ha          -0.00564190 eV
  | ---------------------------
  | Total energy                  :        -150.21189363 Ha       -4087.47359400 eV
  | Total energy, T -> 0          :        -150.21210096 Ha       -4087.47923590 eV  <-- do not rely on this value for anything but (periodic) metals
  | Electronic free energy        :        -150.21230830 Ha       -4087.48487780 eV

  Derived energy quantities:
  | Kinetic energy                :         149.92798939 Ha        4079.74816656 eV
  | Electrostatic energy          :        -283.31725998 Ha       -7709.45489686 eV
  | Energy correction for multipole
  | error in Hartree potential    :           0.00000000 Ha           0.00000000 eV
  | Sum of eigenvalues per atom                           :       -1136.38249266 eV
  | Total energy (T->0) per atom                          :       -2043.73961795 eV  <-- do not rely on this value for anything but (periodic) metals
  | Electronic free energy per atom                       :       -2043.74243890 eV
  Initialize hartree_potential_storage
  Max. number of atoms included in rho_multipole:            2

  End scf initialization - timings             :  max(cpu_time)    wall_clock(cpu1)
  | Time for scf. initialization               :        0.090 s           0.089 s
  | Boundary condition initialization          :        0.001 s           0.000 s
  | Integration                                :        0.033 s           0.032 s
  | Solution of K.-S. eqns.                    :        0.008 s           0.009 s
  | Grid partitioning                          :        0.017 s           0.016 s
  | Preloading free-atom quantities on grid    :        0.017 s           0.018 s
  | Free-atom superposition energy             :        0.005 s           0.005 s
  | Total energy evaluation                    :        0.001 s           0.001 s
------------------------------------------------------------

------------------------------------------------------------
          Begin self-consistency iteration #    1

  Date     :  20190722, Time     :  143612.531
------------------------------------------------------------
  Evaluating new KS density.
  Integration grid: deviation in total charge (<rho> - N_e) =   1.391342E-09
  Pulay mixing of updated and previous charge densities.

  Evaluating partitioned Hartree potential by multipole expansion.
  | Analytical far-field extrapolation by fixed multipoles:
  | Hartree multipole sum: apparent total charge =  -0.551660E-07
  Summing up the Hartree potential.
  Time summed over all CPUs for potential: real work        0.109 s, elapsed        0.112 s
  | RMS charge density error from multipole expansion :   0.121037E-03

  Integrating Hamiltonian matrix: batch-based integration.
  Time summed over all CPUs for integration: real work        0.166 s, elapsed        0.171 s

  Updating Kohn-Sham eigenvalues, eigenvectors, occupation numbers, and Fermi level.
  Solving generalized eigenproblem
  Updating Kohn-Sham eigenvalues and eigenfunctions.
  Solving real generalised eigenvalue problem by standard LAPACK (fast)
  Determining occupation numbers for Kohn-Sham eigenstates.
  | Chemical potential (Fermi level) in eV                 : -.56589877E+01
  | Error in electron count due to remaining E_F inaccuracy: -.48565596E-11
  | Maximum occupation number of highest empty state:  0.00E+00

  Writing Kohn-Sham eigenvalues.

  State    Occupation    Eigenvalue [Ha]    Eigenvalue [eV]
      1       2.00000         -18.925864         -514.99896
      2       2.00000         -18.925640         -514.99285
      3       2.00000          -1.274588          -34.68331
      4       2.00000          -0.731800          -19.91330
      5       2.00000          -0.526442          -14.32521
      6       2.00000          -0.518459          -14.10798
      7       2.00000          -0.518459          -14.10798
      8       1.00000          -0.207964           -5.65899
      9       1.00000          -0.207964           -5.65899
     10       0.00000           0.092694            2.52234
     11       0.00000           0.099165            2.69841
     12       0.00000           0.129301            3.51847
     13       0.00000           0.129301            3.51847
     14       0.00000           0.204421            5.56257

  Highest occupied state (VBM) at     -5.65898774 eV
  | Occupation number:      1.00000000

  Lowest unoccupied state (CBM) at    -5.65898774 eV
  | Occupation number:      1.00000000

  Overall HOMO-LUMO gap:      0.00000000 eV.

  Total energy components:
  | Sum of eigenvalues            :         -83.25843035 Ha       -2265.57716116 eV
  | XC energy correction          :         -16.85908827 Ha        -458.75913311 eV
  | XC potential correction       :          21.67726360 Ha         589.86835478 eV
  | Free-atom electrostatic energy:         -71.49642846 Ha       -1945.51680515 eV
  | Hartree energy correction     :          -0.26873123 Ha          -7.31254872 eV
  | Entropy correction            :          -0.00020734 Ha          -0.00564190 eV
  | ---------------------------
  | Total energy                  :        -150.20541470 Ha       -4087.29729335 eV
  | Total energy, T -> 0          :        -150.20562203 Ha       -4087.30293525 eV  <-- do not rely on this value for anything but (periodic) metals
  | Electronic free energy        :        -150.20582937 Ha       -4087.30857715 eV

  Derived energy quantities:
  | Kinetic energy                :         150.13529140 Ha        4085.38914132 eV
  | Electrostatic energy          :        -283.48161783 Ha       -7713.92730156 eV
  | Energy correction for multipole
  | error in Hartree potential    :          -0.00015399 Ha          -0.00419042 eV
  | Sum of eigenvalues per atom                           :       -1132.78858058 eV
  | Total energy (T->0) per atom                          :       -2043.65146763 eV  <-- do not rely on this value for anything but (periodic) metals
  | Electronic free energy per atom                       :       -2043.65428857 eV

  Self-consistency convergence accuracy:
  | Change of charge density      :  0.1780E+00
  | Change of sum of eigenvalues  :  0.7188E+01 eV
  | Change of total energy        :  0.1763E+00 eV

  End self-consistency iteration #     1       :  max(cpu_time)    wall_clock(cpu1)
  | Time for this iteration                    :        0.062 s           0.061 s
  | Charge density update                      :        0.018 s           0.017 s
  | Density mixing                             :        0.001 s           0.000 s
  | Hartree multipole update                   :        0.004 s           0.004 s
  | Hartree multipole summation                :        0.015 s           0.015 s
  | Integration                                :        0.022 s           0.022 s
  | Solution of K.-S. eqns.                    :        0.001 s           0.001 s
  | Total energy evaluation                    :        0.001 s           0.000 s
------------------------------------------------------------

------------------------------------------------------------
          Begin self-consistency iteration #    2

  Date     :  20190722, Time     :  143612.594
------------------------------------------------------------
  Evaluating new KS density.
  Integration grid: deviation in total charge (<rho> - N_e) =  -4.904521E-12
  Pulay mixing of updated and previous charge densities.

  Evaluating partitioned Hartree potential by multipole expansion.
  | Analytical far-field extrapolation by fixed multipoles:
  | Hartree multipole sum: apparent total charge =  -0.160950E-06
  Summing up the Hartree potential.
  Time summed over all CPUs for potential: real work        0.107 s, elapsed        0.108 s
  | RMS charge density error from multipole expansion :   0.440523E-03

  Integrating Hamiltonian matrix: batch-based integration.
  Time summed over all CPUs for integration: real work        0.166 s, elapsed        0.172 s

  Updating Kohn-Sham eigenvalues, eigenvectors, occupation numbers, and Fermi level.
  Solving generalized eigenproblem
  Updating Kohn-Sham eigenvalues and eigenfunctions.
  Solving real generalised eigenvalue problem by standard LAPACK (fast)
  Determining occupation numbers for Kohn-Sham eigenstates.
  | Chemical potential (Fermi level) in eV                 : -.49302734E+01
  | Error in electron count due to remaining E_F inaccuracy: 0.00000000E+00
  | Maximum occupation number of highest empty state:  0.00E+00

  Highest occupied state (VBM) at     -4.93027342 eV
  | Occupation number:      1.00000000

  Lowest unoccupied state (CBM) at    -4.93027342 eV
  | Occupation number:      1.00000000

  Overall HOMO-LUMO gap:      0.00000000 eV.

  Total energy components:
  | Sum of eigenvalues            :         -82.74912856 Ha       -2251.71835425 eV
  | XC energy correction          :         -16.93382326 Ha        -460.79277575 eV
  | XC potential correction       :          21.77457772 Ha         592.51640668 eV
  | Free-atom electrostatic energy:         -71.49642846 Ha       -1945.51680515 eV
  | Hartree energy correction     :          -0.79553166 Ha         -21.64751797 eV
  | Entropy correction            :          -0.00020734 Ha          -0.00564190 eV
  | ---------------------------
  | Total energy                  :        -150.20033422 Ha       -4087.15904644 eV
  | Total energy, T -> 0          :        -150.20054155 Ha       -4087.16468833 eV  <-- do not rely on this value for anything but (periodic) metals
  | Electronic free energy        :        -150.20074889 Ha       -4087.17033023 eV

  Derived energy quantities:
  | Kinetic energy                :         150.47178134 Ha        4094.54549832 eV
  | Electrostatic energy          :        -283.73829229 Ha       -7720.91176900 eV
  | Energy correction for multipole
  | error in Hartree potential    :          -0.00050840 Ha          -0.01383422 eV
  | Sum of eigenvalues per atom                           :       -1125.85917712 eV
  | Total energy (T->0) per atom                          :       -2043.58234417 eV  <-- do not rely on this value for anything but (periodic) metals
  | Electronic free energy per atom                       :       -2043.58516511 eV

  Self-consistency convergence accuracy:
  | Change of charge density      :  0.1272E+00
  | Change of sum of eigenvalues  :  0.1386E+02 eV
  | Change of total energy        :  0.1382E+00 eV

  End self-consistency iteration #     2       :  max(cpu_time)    wall_clock(cpu1)
  | Time for this iteration                    :        0.058 s           0.058 s
  | Charge density update                      :        0.015 s           0.015 s
  | Density mixing                             :        0.002 s           0.001 s
  | Hartree multipole update                   :        0.003 s           0.003 s
  | Hartree multipole summation                :        0.015 s           0.015 s
  | Integration                                :        0.022 s           0.021 s
  | Solution of K.-S. eqns.                    :        0.001 s           0.002 s
  | Total energy evaluation                    :        0.000 s           0.000 s
------------------------------------------------------------

------------------------------------------------------------
          Begin self-consistency iteration #    3

  Date     :  20190722, Time     :  143612.654
------------------------------------------------------------
  Evaluating new KS density.
  Integration grid: deviation in total charge (<rho> - N_e) =  -3.552714E-14
  Pulay mixing of updated and previous charge densities.

  Evaluating partitioned Hartree potential by multipole expansion.
  | Analytical far-field extrapolation by fixed multipoles:
  | Hartree multipole sum: apparent total charge =  -0.246649E-06
  Summing up the Hartree potential.
  Time summed over all CPUs for potential: real work        0.107 s, elapsed        0.108 s
  | RMS charge density error from multipole expansion :   0.608416E-03

  Integrating Hamiltonian matrix: batch-based integration.
  Time summed over all CPUs for integration: real work        0.166 s, elapsed        0.171 s

  Updating Kohn-Sham eigenvalues, eigenvectors, occupation numbers, and Fermi level.
  Solving generalized eigenproblem
  Updating Kohn-Sham eigenvalues and eigenfunctions.
  Solving real generalised eigenvalue problem by standard LAPACK (fast)
  Determining occupation numbers for Kohn-Sham eigenstates.
  | Chemical potential (Fermi level) in eV                 : -.51136541E+01
  | Error in electron count due to remaining E_F inaccuracy: 0.75507245E-09
  | Maximum occupation number of highest empty state:  0.00E+00

  Highest occupied state (VBM) at     -5.11365409 eV
  | Occupation number:      1.00000006

  Lowest unoccupied state (CBM) at    -5.11365409 eV
  | Occupation number:      0.99999994

  Overall HOMO-LUMO gap:      0.00000000 eV.

  Total energy components:
  | Sum of eigenvalues            :         -82.91617294 Ha       -2256.26386305 eV
  | XC energy correction          :         -16.91457981 Ha        -460.26913483 eV
  | XC potential correction       :          21.74928365 Ha         591.82811999 eV
  | Free-atom electrostatic energy:         -71.49642846 Ha       -1945.51680515 eV
  | Hartree energy correction     :          -0.62237441 Ha         -16.93566936 eV
  | Entropy correction            :          -0.00020734 Ha          -0.00564190 eV
  | ---------------------------
  | Total energy                  :        -150.20027196 Ha       -4087.15735240 eV
  | Total energy, T -> 0          :        -150.20047930 Ha       -4087.16299430 eV  <-- do not rely on this value for anything but (periodic) metals
  | Electronic free energy        :        -150.20068664 Ha       -4087.16863619 eV

  Derived energy quantities:
  | Kinetic energy                :         150.20336737 Ha        4087.24158281 eV
  | Electrostatic energy          :        -283.48905953 Ha       -7714.12980037 eV
  | Energy correction for multipole
  | error in Hartree potential    :          -0.00056848 Ha          -0.01546909 eV
  | Sum of eigenvalues per atom                           :       -1128.13193153 eV
  | Total energy (T->0) per atom                          :       -2043.58149715 eV  <-- do not rely on this value for anything but (periodic) metals
  | Electronic free energy per atom                       :       -2043.58431810 eV

  Self-consistency convergence accuracy:
  | Change of charge density      :  0.3313E-01
  | Change of sum of eigenvalues  : -0.4546E+01 eV
  | Change of total energy        :  0.1694E-02 eV

  End self-consistency iteration #     3       :  max(cpu_time)    wall_clock(cpu1)
  | Time for this iteration                    :        0.061 s           0.060 s
  | Charge density update                      :        0.016 s           0.015 s
  | Density mixing                             :        0.001 s           0.002 s
  | Hartree multipole update                   :        0.004 s           0.003 s
  | Hartree multipole summation                :        0.015 s           0.014 s
  | Integration                                :        0.022 s           0.022 s
  | Solution of K.-S. eqns.                    :        0.001 s           0.002 s
  | Total energy evaluation                    :        0.001 s           0.002 s
------------------------------------------------------------

------------------------------------------------------------
          Begin self-consistency iteration #    4

  Date     :  20190722, Time     :  143612.716
------------------------------------------------------------
  Evaluating new KS density.
  Integration grid: deviation in total charge (<rho> - N_e) =   7.551293E-10
  Pulay mixing of updated and previous charge densities.

  Evaluating partitioned Hartree potential by multipole expansion.
  | Analytical far-field extrapolation by fixed multipoles:
  | Hartree multipole sum: apparent total charge =  -0.251731E-06
  Summing up the Hartree potential.
  Time summed over all CPUs for potential: real work        0.107 s, elapsed        0.108 s
  | RMS charge density error from multipole expansion :   0.641765E-03

  Integrating Hamiltonian matrix: batch-based integration.
  Time summed over all CPUs for integration: real work        0.167 s, elapsed        0.176 s

  Updating Kohn-Sham eigenvalues, eigenvectors, occupation numbers, and Fermi level.
  Solving generalized eigenproblem
  Updating Kohn-Sham eigenvalues and eigenfunctions.
  Solving real generalised eigenvalue problem by standard LAPACK (fast)
  Determining occupation numbers for Kohn-Sham eigenstates.
  | Chemical potential (Fermi level) in eV                 : -.50176750E+01
  | Error in electron count due to remaining E_F inaccuracy: -.28990144E-11
  | Maximum occupation number of highest empty state:  0.00E+00

  Highest occupied state (VBM) at     -5.01767506 eV
  | Occupation number:      1.00000223

  Lowest unoccupied state (CBM) at    -5.01767502 eV
  | Occupation number:      0.99999777

  Overall HOMO-LUMO gap:      0.00000004 eV.

  Total energy components:
  | Sum of eigenvalues            :         -82.84324700 Ha       -2254.27944735 eV
  | XC energy correction          :         -16.92297665 Ha        -460.49762452 eV
  | XC potential correction       :          21.76024980 Ha         592.12652401 eV
  | Free-atom electrostatic energy:         -71.49642846 Ha       -1945.51680515 eV
  | Hartree energy correction     :          -0.69785314 Ha         -18.98955005 eV
  | Entropy correction            :          -0.00020734 Ha          -0.00564190 eV
  | ---------------------------
  | Total energy                  :        -150.20025545 Ha       -4087.15690305 eV
  | Total energy, T -> 0          :        -150.20046279 Ha       -4087.16254495 eV  <-- do not rely on this value for anything but (periodic) metals
  | Electronic free energy        :        -150.20067012 Ha       -4087.16818685 eV

  Derived energy quantities:
  | Kinetic energy                :         150.25334471 Ha        4088.60153522 eV
  | Electrostatic energy          :        -283.53062351 Ha       -7715.26081375 eV
  | Energy correction for multipole
  | error in Hartree potential    :          -0.00060287 Ha          -0.01640492 eV
  | Sum of eigenvalues per atom                           :       -1127.13972367 eV
  | Total energy (T->0) per atom                          :       -2043.58127247 eV  <-- do not rely on this value for anything but (periodic) metals
  | Electronic free energy per atom                       :       -2043.58409342 eV

  Self-consistency convergence accuracy:
  | Change of charge density      :  0.7602E-02
  | Change of sum of eigenvalues  :  0.1984E+01 eV
  | Change of total energy        :  0.4493E-03 eV

  End self-consistency iteration #     4       :  max(cpu_time)    wall_clock(cpu1)
  | Time for this iteration                    :        0.059 s           0.059 s
  | Charge density update                      :        0.016 s           0.016 s
  | Density mixing                             :        0.001 s           0.001 s
  | Hartree multipole update                   :        0.003 s           0.003 s
  | Hartree multipole summation                :        0.015 s           0.014 s
  | Integration                                :        0.022 s           0.022 s
  | Solution of K.-S. eqns.                    :        0.001 s           0.001 s
  | Total energy evaluation                    :        0.000 s           0.001 s
------------------------------------------------------------

------------------------------------------------------------
          Begin self-consistency iteration #    5

  Date     :  20190722, Time     :  143612.778
------------------------------------------------------------
  Evaluating new KS density.
  Integration grid: deviation in total charge (<rho> - N_e) =  -2.959410E-12
  Pulay mixing of updated and previous charge densities.

  Evaluating partitioned Hartree potential by multipole expansion.
  | Analytical far-field extrapolation by fixed multipoles:
  | Hartree multipole sum: apparent total charge =  -0.253570E-06
  Summing up the Hartree potential.
  Time summed over all CPUs for potential: real work        0.110 s, elapsed        0.114 s
  | RMS charge density error from multipole expansion :   0.650038E-03

  Integrating Hamiltonian matrix: batch-based integration.
  Time summed over all CPUs for integration: real work        0.172 s, elapsed        0.194 s

  Updating Kohn-Sham eigenvalues, eigenvectors, occupation numbers, and Fermi level.
  Solving generalized eigenproblem
  Updating Kohn-Sham eigenvalues and eigenfunctions.
  Solving real generalised eigenvalue problem by standard LAPACK (fast)
  Determining occupation numbers for Kohn-Sham eigenstates.
  | Chemical potential (Fermi level) in eV                 : -.50570062E+01
  | Error in electron count due to remaining E_F inaccuracy: 0.85265128E-13
  | Maximum occupation number of highest empty state:  0.00E+00

  Highest occupied state (VBM) at     -5.05700644 eV
  | Occupation number:      1.00002771

  Lowest unoccupied state (CBM) at    -5.05700595 eV
  | Occupation number:      0.99997229

  Overall HOMO-LUMO gap:      0.00000049 eV.

  Total energy components:
  | Sum of eigenvalues            :         -82.87407980 Ha       -2255.11845042 eV
  | XC energy correction          :         -16.91869389 Ha        -460.38108475 eV
  | XC potential correction       :          21.75465192 Ha         591.97419814 eV
  | Free-atom electrostatic energy:         -71.49642846 Ha       -1945.51680515 eV
  | Hartree energy correction     :          -0.66569229 Ha         -18.11440892 eV
  | Entropy correction            :          -0.00020734 Ha          -0.00564190 eV
  | ---------------------------
  | Total energy                  :        -150.20024252 Ha       -4087.15655109 eV
  | Total energy, T -> 0          :        -150.20044985 Ha       -4087.16219298 eV  <-- do not rely on this value for anything but (periodic) metals
  | Electronic free energy        :        -150.20065719 Ha       -4087.16783488 eV

  Derived energy quantities:
  | Kinetic energy                :         150.21800790 Ha        4087.63997182 eV
  | Electrostatic energy          :        -283.49955652 Ha       -7714.41543815 eV
  | Energy correction for multipole
  | error in Hartree potential    :          -0.00059824 Ha          -0.01627898 eV
  | Sum of eigenvalues per atom                           :       -1127.55922521 eV
  | Total energy (T->0) per atom                          :       -2043.58109649 eV  <-- do not rely on this value for anything but (periodic) metals
  | Electronic free energy per atom                       :       -2043.58391744 eV

  Self-consistency convergence accuracy:
  | Change of charge density      :  0.4981E-02
  | Change of sum of eigenvalues  : -0.8390E+00 eV
  | Change of total energy        :  0.3520E-03 eV

  End self-consistency iteration #     5       :  max(cpu_time)    wall_clock(cpu1)
  | Time for this iteration                    :        0.063 s           0.062 s
  | Charge density update                      :        0.016 s           0.015 s
  | Density mixing                             :        0.001 s           0.001 s
  | Hartree multipole update                   :        0.004 s           0.004 s
  | Hartree multipole summation                :        0.015 s           0.015 s
  | Integration                                :        0.025 s           0.024 s
  | Solution of K.-S. eqns.                    :        0.001 s           0.002 s
  | Total energy evaluation                    :        0.000 s           0.000 s
------------------------------------------------------------

------------------------------------------------------------
          Begin self-consistency iteration #    6

  Date     :  20190722, Time     :  143612.842
------------------------------------------------------------
  Evaluating new KS density.
  Integration grid: deviation in total charge (<rho> - N_e) =   2.842171E-14
  Pulay mixing of updated and previous charge densities.

  Evaluating partitioned Hartree potential by multipole expansion.
  | Analytical far-field extrapolation by fixed multipoles:
  | Hartree multipole sum: apparent total charge =  -0.251683E-06
  Summing up the Hartree potential.
  Time summed over all CPUs for potential: real work        0.108 s, elapsed        0.113 s
  | RMS charge density error from multipole expansion :   0.651406E-03

  Integrating Hamiltonian matrix: batch-based integration.
  Time summed over all CPUs for integration: real work        0.167 s, elapsed        0.171 s

  Updating Kohn-Sham eigenvalues, eigenvectors, occupation numbers, and Fermi level.
  Solving generalized eigenproblem
  Updating Kohn-Sham eigenvalues and eigenfunctions.
  Solving real generalised eigenvalue problem by standard LAPACK (fast)
  Determining occupation numbers for Kohn-Sham eigenstates.
  | Chemical potential (Fermi level) in eV                 : -.50591462E+01
  | Error in electron count due to remaining E_F inaccuracy: 0.85265128E-13
  | Maximum occupation number of highest empty state:  0.00E+00

  Highest occupied state (VBM) at     -5.05916070 eV
  | Occupation number:      1.00163278

  Lowest unoccupied state (CBM) at    -5.05913175 eV
  | Occupation number:      0.99836722

  Overall HOMO-LUMO gap:      0.00002894 eV.

  Total energy components:
  | Sum of eigenvalues            :         -82.87535315 Ha       -2255.15310004 eV
  | XC energy correction          :         -16.91864631 Ha        -460.37979001 eV
  | XC potential correction       :          21.75458106 Ha         591.97226998 eV
  | Free-atom electrostatic energy:         -71.49642846 Ha       -1945.51680515 eV
  | Hartree energy correction     :          -0.66439565 Ha         -18.07912541 eV
  | Entropy correction            :          -0.00020734 Ha          -0.00564188 eV
  | ---------------------------
  | Total energy                  :        -150.20024250 Ha       -4087.15655062 eV
  | Total energy, T -> 0          :        -150.20044983 Ha       -4087.16219251 eV  <-- do not rely on this value for anything but (periodic) metals
  | Electronic free energy        :        -150.20065717 Ha       -4087.16783439 eV

  Derived energy quantities:
  | Kinetic energy                :         150.21988727 Ha        4087.69111215 eV
  | Electrostatic energy          :        -283.50148346 Ha       -7714.46787276 eV
  | Energy correction for multipole
  | error in Hartree potential    :          -0.00059885 Ha          -0.01629556 eV
  | Sum of eigenvalues per atom                           :       -1127.57655002 eV
  | Total energy (T->0) per atom                          :       -2043.58109625 eV  <-- do not rely on this value for anything but (periodic) metals
  | Electronic free energy per atom                       :       -2043.58391720 eV

  Self-consistency convergence accuracy:
  | Change of charge density      :  0.2646E-03
  | Change of sum of eigenvalues  : -0.3465E-01 eV
  | Change of total energy        :  0.4669E-06 eV

  End self-consistency iteration #     6       :  max(cpu_time)    wall_clock(cpu1)
  | Time for this iteration                    :        0.061 s           0.060 s
  | Charge density update                      :        0.017 s           0.016 s
  | Density mixing                             :        0.001 s           0.002 s
  | Hartree multipole update                   :        0.004 s           0.003 s
  | Hartree multipole summation                :        0.015 s           0.015 s
  | Integration                                :        0.022 s           0.022 s
  | Solution of K.-S. eqns.                    :        0.001 s           0.001 s
  | Total energy evaluation                    :        0.000 s           0.001 s
------------------------------------------------------------

------------------------------------------------------------
          Begin self-consistency iteration #    7

  Date     :  20190722, Time     :  143612.905
------------------------------------------------------------
  Evaluating new KS density.
  Integration grid: deviation in total charge (<rho> - N_e) =   8.881784E-14
  Pulay mixing of updated and previous charge densities.

  Evaluating partitioned Hartree potential by multipole expansion.
  | Analytical far-field extrapolation by fixed multipoles:
  | Hartree multipole sum: apparent total charge =  -0.251646E-06
  Summing up the Hartree potential.
  Time summed over all CPUs for potential: real work        0.110 s, elapsed        0.112 s
  | RMS charge density error from multipole expansion :   0.651432E-03

  Integrating Hamiltonian matrix: batch-based integration.
  Time summed over all CPUs for integration: real work        0.168 s, elapsed        0.173 s

  Updating Kohn-Sham eigenvalues, eigenvectors, occupation numbers, and Fermi level.
  Solving generalized eigenproblem
  Updating Kohn-Sham eigenvalues and eigenfunctions.
  Solving real generalised eigenvalue problem by standard LAPACK (fast)
  Determining occupation numbers for Kohn-Sham eigenstates.
  | Chemical potential (Fermi level) in eV                 : -.50591762E+01
  | Error in electron count due to remaining E_F inaccuracy: -.85265128E-13
  | Maximum occupation number of highest empty state:  0.00E+00

  Highest occupied state (VBM) at     -5.05917627 eV
  | Occupation number:      1.00000648

  Lowest unoccupied state (CBM) at    -5.05917615 eV
  | Occupation number:      0.99999352

  Overall HOMO-LUMO gap:      0.00000011 eV.

  Total energy components:
  | Sum of eigenvalues            :         -82.87536877 Ha       -2255.15352506 eV
  | XC energy correction          :         -16.91864630 Ha        -460.37978967 eV
  | XC potential correction       :          21.75458089 Ha         591.97226518 eV
  | Free-atom electrostatic energy:         -71.49642846 Ha       -1945.51680515 eV
  | Hartree energy correction     :          -0.66437986 Ha         -18.07869588 eV
  | Entropy correction            :          -0.00020734 Ha          -0.00564190 eV
  | ---------------------------
  | Total energy                  :        -150.20024250 Ha       -4087.15655057 eV
  | Total energy, T -> 0          :        -150.20044983 Ha       -4087.16219246 eV  <-- do not rely on this value for anything but (periodic) metals
  | Electronic free energy        :        -150.20065717 Ha       -4087.16783436 eV

  Derived energy quantities:
  | Kinetic energy                :         150.21993037 Ha        4087.69228498 eV
  | Electrostatic energy          :        -283.50152657 Ha       -7714.46904588 eV
  | Energy correction for multipole
  | error in Hartree potential    :          -0.00059886 Ha          -0.01629591 eV
  | Sum of eigenvalues per atom                           :       -1127.57676253 eV
  | Total energy (T->0) per atom                          :       -2043.58109623 eV  <-- do not rely on this value for anything but (periodic) metals
  | Electronic free energy per atom                       :       -2043.58391718 eV

  Self-consistency convergence accuracy:
  | Change of charge density      :  0.5094E-03
  | Change of sum of eigenvalues  : -0.4250E-03 eV
  | Change of total energy        :  0.5339E-07 eV

  End self-consistency iteration #     7       :  max(cpu_time)    wall_clock(cpu1)
  | Time for this iteration                    :        0.059 s           0.059 s
  | Charge density update                      :        0.016 s           0.015 s
  | Density mixing                             :        0.001 s           0.002 s
  | Hartree multipole update                   :        0.004 s           0.003 s
  | Hartree multipole summation                :        0.015 s           0.015 s
  | Integration                                :        0.022 s           0.022 s
  | Solution of K.-S. eqns.                    :        0.001 s           0.001 s
  | Total energy evaluation                    :        0.000 s           0.001 s
------------------------------------------------------------

------------------------------------------------------------
          Begin self-consistency iteration #    8

  Date     :  20190722, Time     :  143612.966
------------------------------------------------------------
  Evaluating new KS density.
  Integration grid: deviation in total charge (<rho> - N_e) =   3.197442E-14
  Pulay mixing of updated and previous charge densities.

  Evaluating partitioned Hartree potential by multipole expansion.
  | Analytical far-field extrapolation by fixed multipoles:
  | Hartree multipole sum: apparent total charge =  -0.251658E-06
  Summing up the Hartree potential.
  Time summed over all CPUs for potential: real work        0.108 s, elapsed        0.109 s
  | RMS charge density error from multipole expansion :   0.651420E-03

  Integrating Hamiltonian matrix: batch-based integration.
  Time summed over all CPUs for integration: real work        0.167 s, elapsed        0.171 s

  Updating Kohn-Sham eigenvalues, eigenvectors, occupation numbers, and Fermi level.
  Solving generalized eigenproblem
  Updating Kohn-Sham eigenvalues and eigenfunctions.
  Solving real generalised eigenvalue problem by standard LAPACK (fast)
  Determining occupation numbers for Kohn-Sham eigenstates.
  | Chemical potential (Fermi level) in eV                 : -.50590419E+01
  | Error in electron count due to remaining E_F inaccuracy: -.85265128E-13
  | Maximum occupation number of highest empty state:  0.00E+00

  Highest occupied state (VBM) at     -5.05904194 eV
  | Occupation number:      1.00000003

  Lowest unoccupied state (CBM) at    -5.05904194 eV
  | Occupation number:      0.99999997

  Overall HOMO-LUMO gap:      0.00000000 eV.

  Total energy components:
  | Sum of eigenvalues            :         -82.87526591 Ha       -2255.15072619 eV
  | XC energy correction          :         -16.91865604 Ha        -460.38005460 eV
  | XC potential correction       :          21.75459376 Ha         591.97261543 eV
  | Free-atom electrostatic energy:         -71.49642846 Ha       -1945.51680515 eV
  | Hartree energy correction     :          -0.66448585 Ha         -18.08158006 eV
  | Entropy correction            :          -0.00020734 Ha          -0.00564190 eV
  | ---------------------------
  | Total energy                  :        -150.20024250 Ha       -4087.15655057 eV
  | Total energy, T -> 0          :        -150.20044983 Ha       -4087.16219246 eV  <-- do not rely on this value for anything but (periodic) metals
  | Electronic free energy        :        -150.20065717 Ha       -4087.16783436 eV

  Derived energy quantities:
  | Kinetic energy                :         150.21998575 Ha        4087.69379195 eV
  | Electrostatic energy          :        -283.50157222 Ha       -7714.47028792 eV
  | Energy correction for multipole
  | error in Hartree potential    :          -0.00059887 Ha          -0.01629612 eV
  | Sum of eigenvalues per atom                           :       -1127.57536310 eV
  | Total energy (T->0) per atom                          :       -2043.58109623 eV  <-- do not rely on this value for anything but (periodic) metals
  | Electronic free energy per atom                       :       -2043.58391718 eV

  Self-consistency convergence accuracy:
  | Change of charge density      :  0.1428E-04
  | Change of sum of eigenvalues  :  0.2799E-02 eV
  | Change of total energy        :  0.1556E-08 eV

  Electronic self-consistency reached - switching on the force computation.

  End self-consistency iteration #     8       :  max(cpu_time)    wall_clock(cpu1)
  | Time for this iteration                    :        0.059 s           0.058 s
  | Charge density & force component update    :        0.016 s           0.014 s
  | Density mixing                             :        0.002 s           0.002 s
  | Hartree multipole update                   :        0.003 s           0.004 s
  | Hartree multipole summation                :        0.015 s           0.014 s
  | Integration                                :        0.022 s           0.022 s
  | Solution of K.-S. eqns.                    :        0.001 s           0.001 s
  | Total energy evaluation                    :        0.000 s           0.001 s
------------------------------------------------------------

------------------------------------------------------------
          Begin self-consistency iteration #    9

  Date     :  20190722, Time     :  143613.028
------------------------------------------------------------
  Evaluating new KS density.
  Integration grid: deviation in total charge (<rho> - N_e) =  -1.776357E-14
  Pulay mixing of updated and previous charge densities.

  Evaluating partitioned Hartree potential by multipole expansion.
  | Analytical far-field extrapolation by fixed multipoles:
  | Hartree multipole sum: apparent total charge =  -0.251654E-06
  Summing up the Hartree potential.
  Time summed over all CPUs for potential: real work        0.284 s, elapsed        0.301 s
  | RMS charge density error from multipole expansion :   0.651463E-03

  Integrating Hamiltonian matrix: batch-based integration.
  Time summed over all CPUs for integration: real work        0.167 s, elapsed        0.172 s

  Updating Kohn-Sham eigenvalues, eigenvectors, occupation numbers, and Fermi level.
  Solving generalized eigenproblem
  Updating Kohn-Sham eigenvalues and eigenfunctions.
  Solving real generalised eigenvalue problem by standard LAPACK (fast)
  Determining occupation numbers for Kohn-Sham eigenstates.
  | Chemical potential (Fermi level) in eV                 : -.50590128E+01
  | Error in electron count due to remaining E_F inaccuracy: 0.00000000E+00
  | Maximum occupation number of highest empty state:  0.00E+00

  Highest occupied state (VBM) at     -5.05901282 eV
  | Occupation number:      1.00000001

  Lowest unoccupied state (CBM) at    -5.05901282 eV
  | Occupation number:      0.99999999

  Overall HOMO-LUMO gap:      0.00000000 eV.

  Total energy components:
  | Sum of eigenvalues            :         -82.87524648 Ha       -2255.15019742 eV
  | XC energy correction          :         -16.91865778 Ha        -460.38010197 eV
  | XC potential correction       :          21.75459604 Ha         591.97267756 eV
  | Free-atom electrostatic energy:         -71.49642846 Ha       -1945.51680515 eV
  | Hartree energy correction     :          -0.66450583 Ha         -18.08212360 eV
  | Entropy correction            :          -0.00020734 Ha          -0.00564190 eV
  | ---------------------------
  | Total energy                  :        -150.20024250 Ha       -4087.15655057 eV
  | Total energy, T -> 0          :        -150.20044983 Ha       -4087.16219247 eV  <-- do not rely on this value for anything but (periodic) metals
  | Electronic free energy        :        -150.20065717 Ha       -4087.16783437 eV

  Derived energy quantities:
  | Kinetic energy                :         150.21997722 Ha        4087.69355966 eV
  | Electrostatic energy          :        -283.50156194 Ha       -7714.47000826 eV
  | Energy correction for multipole
  | error in Hartree potential    :          -0.00059888 Ha          -0.01629646 eV
  | Sum of eigenvalues per atom                           :       -1127.57509871 eV
  | Total energy (T->0) per atom                          :       -2043.58109624 eV  <-- do not rely on this value for anything but (periodic) metals
  | Electronic free energy per atom                       :       -2043.58391718 eV

  atomic forces [eV/Ang]:
  -----------------------
  atom #    1
   Hellmann-Feynman              :  0.166898E-10  0.349560E-10 -0.249184E+02
   Ionic forces                  :  0.000000E+00  0.000000E+00  0.000000E+00
   Multipole                     :  0.854022E-13 -0.229495E-12  0.453893E-01
   Pulay + GGA                   :  0.000000E+00  0.000000E+00  0.000000E+00
   ----------------------------------------------------------------
   Total forces(   1)            :  0.167752E-10  0.347265E-10 -0.248730E+02
  atom #    2
   Hellmann-Feynman              :  0.428238E-12  0.217325E-11  0.249184E+02
   Ionic forces                  :  0.000000E+00  0.000000E+00  0.000000E+00
   Multipole                     : -0.695226E-14 -0.743870E-14 -0.453893E-01
   Pulay + GGA                   :  0.000000E+00  0.000000E+00  0.000000E+00
   ----------------------------------------------------------------
   Total forces(   2)            :  0.421286E-12  0.216581E-11  0.248730E+02


  Self-consistency convergence accuracy:
  | Change of charge density      :  0.4459E-05
  | Change of sum of eigenvalues  :  0.5288E-03 eV
  | Change of total energy        : -0.7290E-08 eV
  | Change of forces              :  0.2487E+02 eV/A

  End self-consistency iteration #     9       :  max(cpu_time)    wall_clock(cpu1)
  | Time for this iteration                    :        0.086 s           0.084 s
  | Charge density & force component update    :        0.017 s           0.015 s
  | Density mixing                             :        0.002 s           0.002 s
  | Hartree multipole update                   :        0.004 s           0.004 s
  | Hartree multipole summation                :        0.039 s           0.038 s
  | Integration                                :        0.022 s           0.022 s
  | Solution of K.-S. eqns.                    :        0.001 s           0.001 s
  | Total energy evaluation                    :        0.001 s           0.002 s
------------------------------------------------------------

------------------------------------------------------------
          Begin self-consistency iteration #   10

  Date     :  20190722, Time     :  143613.115
------------------------------------------------------------
  Evaluating new KS density and force components.
  Integration grid: deviation in total charge (<rho> - N_e) =  -7.638334E-14
  Pulay mixing of updated and previous charge densities.

  Evaluating partitioned Hartree potential by multipole expansion.
  | Analytical far-field extrapolation by fixed multipoles:
  | Hartree multipole sum: apparent total charge =  -0.251654E-06
  Summing up the Hartree potential.
  Time summed over all CPUs for potential: real work        0.279 s, elapsed        0.291 s
  | RMS charge density error from multipole expansion :   0.651463E-03

  Integrating Hamiltonian matrix: batch-based integration.
  Time summed over all CPUs for integration: real work        0.167 s, elapsed        0.173 s

  Updating Kohn-Sham eigenvalues, eigenvectors, occupation numbers, and Fermi level.
  Solving generalized eigenproblem
  Updating Kohn-Sham eigenvalues and eigenfunctions.
  Solving real generalised eigenvalue problem by standard LAPACK (fast)
  Determining occupation numbers for Kohn-Sham eigenstates.
  | Chemical potential (Fermi level) in eV                 : -.50590114E+01
  | Error in electron count due to remaining E_F inaccuracy: 0.00000000E+00
  | Maximum occupation number of highest empty state:  0.00E+00

  Highest occupied state (VBM) at     -5.05901137 eV
  | Occupation number:      1.00000052

  Lowest unoccupied state (CBM) at    -5.05901136 eV
  | Occupation number:      0.99999948

  Overall HOMO-LUMO gap:      0.00000001 eV.

  Total energy components:
  | Sum of eigenvalues            :         -82.87524522 Ha       -2255.15016324 eV
  | XC energy correction          :         -16.91865793 Ha        -460.38010614 eV
  | XC potential correction       :          21.75459624 Ha         591.97268300 eV
  | Free-atom electrostatic energy:         -71.49642846 Ha       -1945.51680515 eV
  | Hartree energy correction     :          -0.66450713 Ha         -18.08215906 eV
  | Entropy correction            :          -0.00020734 Ha          -0.00564190 eV
  | ---------------------------
  | Total energy                  :        -150.20024250 Ha       -4087.15655057 eV
  | Total energy, T -> 0          :        -150.20044983 Ha       -4087.16219247 eV  <-- do not rely on this value for anything but (periodic) metals
  | Electronic free energy        :        -150.20065717 Ha       -4087.16783437 eV

  Derived energy quantities:
  | Kinetic energy                :         150.21997822 Ha        4087.69358702 eV
  | Electrostatic energy          :        -283.50156279 Ha       -7714.47003146 eV
  | Energy correction for multipole
  | error in Hartree potential    :          -0.00059888 Ha          -0.01629649 eV
  | Sum of eigenvalues per atom                           :       -1127.57508162 eV
  | Total energy (T->0) per atom                          :       -2043.58109624 eV  <-- do not rely on this value for anything but (periodic) metals
  | Electronic free energy per atom                       :       -2043.58391718 eV

  atomic forces [eV/Ang]:
  -----------------------
  atom #    1
   Hellmann-Feynman              :  0.384871E-10 -0.122427E-11 -0.249183E+02
   Ionic forces                  :  0.000000E+00  0.000000E+00  0.000000E+00
   Multipole                     :  0.866566E-13  0.176170E-12  0.453894E-01
   Pulay + GGA                   : -0.111497E-10 -0.101563E-10  0.148729E+02
   ----------------------------------------------------------------
   Total forces(   1)            :  0.274241E-10 -0.112044E-10 -0.100001E+02
  atom #    2
   Hellmann-Feynman              :  0.318882E-10  0.331117E-11  0.249183E+02
   Ionic forces                  :  0.000000E+00  0.000000E+00  0.000000E+00
   Multipole                     :  0.554286E-13  0.619961E-14 -0.453894E-01
   Pulay + GGA                   : -0.294584E-11  0.866340E-12 -0.148729E+02
   ----------------------------------------------------------------
   Total forces(   2)            :  0.289978E-10  0.418371E-11  0.100001E+02


  Self-consistency convergence accuracy:
  | Change of charge density      :  0.1945E-06
  | Change of sum of eigenvalues  :  0.3418E-04 eV
  | Change of total energy        : -0.7038E-10 eV
  | Change of forces              :  0.3539E-04 eV/A

  Writing Kohn-Sham eigenvalues.

  State    Occupation    Eigenvalue [Ha]    Eigenvalue [eV]
      1       2.00000         -18.889630         -514.01299
      2       2.00000         -18.889404         -514.00683
      3       2.00000          -1.269640          -34.54866
      4       2.00000          -0.700708          -19.06722
      5       2.00000          -0.503622          -13.70425
      6       2.00000          -0.503622          -13.70425
      7       2.00000          -0.495082          -13.47188
      8       1.00000          -0.185915           -5.05901
      9       1.00000          -0.185915           -5.05901
     10       0.00000           0.098728            2.68652
     11       0.00000           0.105717            2.87671
     12       0.00000           0.132979            3.61854
     13       0.00000           0.132979            3.61854
     14       0.00000           0.210325            5.72323

  Highest occupied state (VBM) at     -5.05901137 eV
  | Occupation number:      1.00000052

  Lowest unoccupied state (CBM) at    -5.05901136 eV
  | Occupation number:      0.99999948

  Overall HOMO-LUMO gap:      0.00000001 eV.

  Self-consistency cycle converged.

  End self-consistency iteration #    10       :  max(cpu_time)    wall_clock(cpu1)
  | Time for this iteration                    :        0.118 s           0.119 s
  | Charge density & force component update    :        0.051 s           0.051 s
  | Density mixing                             :        0.002 s           0.002 s
  | Hartree multipole update                   :        0.004 s           0.003 s
  | Hartree multipole summation                :        0.037 s           0.037 s
  | Integration                                :        0.022 s           0.022 s
  | Solution of K.-S. eqns.                    :        0.001 s           0.001 s
  | Total energy evaluation                    :        0.001 s           0.002 s
------------------------------------------------------------
  Writing cluster restart information to file restart
  ------------------------------------------------------------
   Computing monopole / dipole moments for complete molecule:
  | Total electronic charge [e]         :          0.159999999999999E+02
  | Total ionic charge [e]              :          0.160000000000000E+02
  | Total charge [e]                    :          0.104805053524615E-12
  | Total dipole moment [eAng]          :          0.307962631803521E-13         0.972320315983932E-14         0.221841783272225E-12
  | Absolute dipole moment              :          0.224180122470664E-12 eAng              /                   0.107661520299628E-11 Debye  .
  Removing unitary transformations (pure translations, rotations) from forces on atoms.
  Atomic forces before filtering:
  | Net force on center of mass :   0.564219E-10 -0.702070E-11 -0.490931E-10 eV/A
  | Net torque on center of mass:  -0.861951E-11  0.881540E-12  0.000000E+00 eV
  Atomic forces after filtering:
  | Net force on center of mass :   0.103846E-25 -0.129808E-26 -0.142725E-14 eV/A
  | Net torque on center of mass:   0.145421E-26  0.000000E+00  0.000000E+00 eV

  Energy and forces in a compact form:
  | Total energy uncorrected      :         -0.408715655057478E+04 eV
  | Total energy corrected        :         -0.408716219247049E+04 eV  <-- do not rely on this value for anything but (periodic) metals
  | Electronic free energy        :         -0.408716783436620E+04 eV
  Total atomic forces (unitary forces cleaned) [eV/Ang]:
  |   1          0.519230158900898E-26          0.649037698626122E-27         -0.100000739342170E+02
  |   2          0.519230158900898E-26         -0.194711309587837E-26          0.100000739342170E+02

  ------------------------------------ 
  Start decomposition of the XC Energy 
  ------------------------------------ 
  Hartree-Fock part   :          0.000000000 Ha              0.000000000 eV
  ------------------------------------ 
  X Energy            :        -16.378170975 Ha           -445.672707794 eV
  C Energy GGA        :         -0.540486955 Ha            -14.707398342 eV
  Total XC Energy     :        -16.918657929 Ha           -460.380106135 eV
  LDA X and C from self-consistent density 
  X Energy LDA        :        -14.883705638 Ha           -405.006236907 eV
  C Energy LDA        :         -1.116159763 Ha            -30.372252474 eV
  ------------------------------------ 
  End decomposition of the XC Energy 
  ------------------------------------ 

------------------------------------------------------------------------------
  Final output of selected total energy values:

  The following output summarizes some interesting total energy values
  at the end of a run (AFTER all relaxation, molecular dynamics, etc.).

  | Total energy of the DFT / Hartree-Fock s.c.f. calculation      :          -4087.156550575 eV
  | Final zero-broadening corrected energy (caution - metals only) :          -4087.162192470 eV
  | For reference only, the value of 1 Hartree used in FHI-aims is :             27.211384500 eV

  Before relying on these values, please be sure to understand exactly which
  total energy value is referred to by a given number. Different objects may
  all carry the same name 'total energy'. Definitions:

  Total energy of the DFT / Hartree-Fock s.c.f. calculation:
  | Note that this energy does not include ANY quantities calculated after the
  | s.c.f. cycle, in particular not ANY RPA, MP2, etc. many-body perturbation terms.

  Final zero-broadening corrected energy:
  | For metallic systems only, a broadening of the occupation numbers at the Fermi
  | level can be extrapolated back to zero broadening by an electron-gas inspired
  | formula. For all systems that are not real metals, this value can be
  | meaningless and should be avoided.

------------------------------------------------------------------------------
  Methods described in the following list of references were used in this FHI-aims run.
  If you publish the results, please make sure to cite these reference if they apply.
  FHI-aims is an academic code, and for our developers (often, Ph.D. students
  and postdocs), scientific credit in the community is essential.
  Thank you for helping us!

  For any use of FHI-aims, please cite:

    Volker Blum, Ralf Gehrke, Felix Hanke, Paula Havu, Ville Havu,
    Xinguo Ren, Karsten Reuter, and Matthias Scheffler
    'Ab initio molecular simulations with numeric atom-centered orbitals'
    Computer Physics Communications 180, 2175-2196 (2009)
    http://dx.doi.org/10.1016/j.cpc.2009.06.022


  For the real-space grid partitioning and parallelization used in this calculation, please cite:

    Ville Havu, Volker Blum, Paula Havu, and Matthias Scheffler,
    'Efficient O(N) integration for all-electron electronic structure calculation'
    'using numerically tabulated basis functions'
    Journal of Computational Physics 228, 8367-8379 (2009).
    http://dx.doi.org/10.1016/j.jcp.2009.08.008

  Of course, there are many other important community references, e.g., those cited in the
  above references. Our list is limited to references that describe implementations in the
  FHI-aims code. The reason is purely practical (length of this list) - please credit others as well.

------------------------------------------------------------
          Leaving FHI-aims.
          Date     :  20190722, Time     :  143613.309

          Computational steps:
          | Number of self-consistency cycles          :           10

          Detailed time accounting                     :  max(cpu_time)    wall_clock(cpu1)
          | Total time                                 :        1.024 s           1.050 s
          | Preparation time                           :        0.143 s           0.166 s
          | Grid partitioning                          :        0.017 s           0.016 s
          | Preloading free-atom quantities on grid    :        0.017 s           0.018 s
          | Free-atom superposition energy             :        0.005 s           0.005 s
          | Total time for integrations                :        0.256 s           0.253 s
          | Total time for solution of K.-S. equations :        0.018 s           0.022 s
          | Total time for density & force components  :        0.198 s           0.189 s
          | Total time for mixing                      :        0.014 s           0.015 s
          | Total time for Hartree multipole update    :        0.037 s           0.034 s
          | Total time for Hartree multipole sum       :        0.196 s           0.192 s
          | Total time for total energy evaluation     :        0.005 s           0.011 s

          Have a nice day.
------------------------------------------------------------
