  MPI-parallelism will be employed.
------------------------------------------------------------
          Invoking FHI-aims ...
          Version 160328_3
          Compiled on 2019/06/10 at 14:55:49 on host taito-login3.csc.fi.

          When using FHI-aims, please cite the following reference:

          Volker Blum, Ralf Gehrke, Felix Hanke, Paula Havu,
          Ville Havu, Xinguo Ren, Karsten Reuter, and Matthias Scheffler,
          'Ab Initio Molecular Simulations with Numeric Atom-Centered Orbitals',
          Computer Physics Communications 180, 2175-2196 (2009)

          For any questions about FHI-aims, please visit the aimsclub website
          with its forums and wiki. Contributions to both the forums and the
          wiki are warmly encouraged - they are for you, and everyone is welcome there.

------------------------------------------------------------

  Date     :  20190722, Time     :  144407.637
  Time zero on CPU 1             :   0.609900000000000E-01  s.
  Internal wall clock time zero  :           333038647.637  s.

  Using        4 parallel tasks.
  Task        0 on host c798 reporting.
  Task        1 on host c798 reporting.
  Task        2 on host c798 reporting.
  Task        3 on host c798 reporting.

  Performing system and environment tests:
  | Environment variable OMP_NUM_THREADS correctly set to 1.
  | Maximum stacksize for task 0: unlimited
  | Maximum stacksize for task 1: unlimited
  | Maximum stacksize for task 2: unlimited
  | Maximum stacksize for task 3: unlimited
  | Current stacksize for task 0: 1024 [Mb]
  | Current stacksize for task 1: 1024 [Mb]
  | Current stacksize for task 2: 1024 [Mb]
  | Current stacksize for task 3: 1024 [Mb]
  | Checking for scalapack...
  | No scalapack compiled in.

  Obtaining array dimensions for all initial allocations:
  
  -----------------------------------------------------------------------
  Parsing control.in (first pass over file, find array dimensions only).
  The contents of control.in will be repeated verbatim below
  unless switched off by setting 'verbatim_writeout .false.' .
  in the first line of control.in .
  -----------------------------------------------------------------------
  
    #  Physical model settings
    #
  
    xc                            pbe
    charge                        1.0
    relativistic                  none
  #  default_initial_moment        0.0
    spin                          none
  #  vdw_correction_hirshfeld
  
    #  SCF convergence settings
    #
  
    sc_accuracy_rho               1E-4
    sc_accuracy_eev               1E-2
    sc_accuracy_etot              1E-8
    sc_iter_limit                 100
  
    #  Occupation settings
    #
  
    restart                       restart
  #  force_occupation_projector      6 1 1.0 6 7 # ion 3
  
    #  Relaxation
    #
  
    #relax_geometry                bfgs    1.e-4
  
  
  ################################################################################
  #
  #  FHI-aims code project
  #  VB, Fritz-Haber Institut, 2007
  #
  #  Suggested "safe" defaults for O atom (to be pasted into control.in file)
  #
  ################################################################################
    species        O
  #     global species definitions
      nucleus             8
      mass                15.9994
  #
      l_hartree           8
  #
      cut_pot             4.0  2.0  1.0
      basis_dep_cutoff    0.d0
  #
      radial_base         36 7.0
      radial_multiplier   2
       angular_grids specified
        division   0.4087  110
        division   0.5181  194
        division   0.6184  302
        division   0.7315  434
        division   0.7934  590
  #      division   0.9656  770
  #      division   1.4041  974
  #      outer_grid 974
        outer_grid 590
  ################################################################################
  #
  #  Definition of "minimal" basis
  #
  ################################################################################
  #     valence basis states
      valence      2  s   2.
      valence      2  p   4.
  #     ion occupancy
      ion_occ      2  s   1.
      ion_occ      2  p   3.
  ################################################################################
  #
  #  Suggested additional basis functions. For production calculations,
  #  uncomment them one after another (the most important basis functions are
  #  listed first).
  #
  #  Constructed for dimers: 1.0 A, 1.208 A, 1.5 A, 2.0 A, 3.0 A
  #
  ################################################################################
  #  "First tier" - improvements: -699.05 meV to -159.38 meV
       hydro 2 p 1.8
       hydro 3 d 7.6
       hydro 3 s 6.4
  #  "Second tier" - improvements: -49.91 meV to -5.39 meV
       hydro 4 f 11.6
       hydro 3 p 6.2
       hydro 3 d 5.6
       hydro 5 g 17.6
       hydro 1 s 0.75
  #  "Third tier" - improvements: -2.83 meV to -0.50 meV
  #     ionic 2 p auto
  #     hydro 4 f 10.8
  #     hydro 4 d 4.7
  #     hydro 2 s 6.8
  #  "Fourth tier" - improvements: -0.40 meV to -0.12 meV
  #     hydro 3 p 5
  #     hydro 3 s 3.3
  #     hydro 5 g 15.6
  #     hydro 4 f 17.6
  #     hydro 4 d 14
  # Further basis functions - -0.08 meV and below
  #     hydro 3 s 2.1
  #     hydro 4 d 11.6
  #     hydro 3 p 16
  #     hydro 2 s 17.2
  compute_forces .true.
  final_forces_cleaned .true.
  output dipole
  
  -----------------------------------------------------------------------
  Completed first pass over input file control.in .
  -----------------------------------------------------------------------
  
  
  -----------------------------------------------------------------------
  Parsing geometry.in (first pass over file, find array dimensions only).
  The contents of geometry.in will be repeated verbatim below
  unless switched off by setting 'verbatim_writeout .false.' .
  in the first line of geometry.in .
  -----------------------------------------------------------------------
  
  #
  # temporary structure-file for finite-difference calculation of forces
  # displacement  -0.0025 of \# atom     0 direction     0
  #
  atom   -0.00250000   -0.00000000    0.04235920   O
  atom   -0.00000000   -0.00000000    1.16514080   O
  
  -----------------------------------------------------------------------
  Completed first pass over input file geometry.in .
  -----------------------------------------------------------------------
  

  Basic array size parameters:
  | Number of species                 :        1
  | Number of atoms                   :        2
  | Max. basis fn. angular momentum   :        4
  | Max. atomic/ionic basis occupied n:        2
  | Max. number of basis fn. types    :        2
  | Max. radial fns per species/type  :        8
  | Max. logarithmic grid size        :     1301
  | Max. radial integration grid size :       73
  | Max. angular integration grid size:      590
  | Max. angular grid division number :        8
  | Radial grid for Hartree potential :     1301
  | Number of spin channels           :        1

------------------------------------------------------------
          Reading file control.in.
------------------------------------------------------------
  XC: Using PBE gradient-corrected functionals.
  Charged system requested: Charge =   0.100000E+01.
  Non-relativistic treatment of kinetic energy.
  Spin treatment: No spin polarisation.
  Convergence accuracy of self-consistent charge density:  0.1000E-03
  Convergence accuracy of sum of eigenvalues:  0.1000E-01
  Convergence accuracy of total energy:  0.1000E-07
  Maximum number of s.-c. iterations  :   100
  Restart file specified as : restart
  | Reading information from existing file.
 
  Reading configuration options for species O                   .
  | Found nuclear charge :   8.0000
  | Found atomic mass :    15.9994000000000      amu
  | Found l_max for Hartree potential  :   8
  | Found cutoff potl. onset [A], width [A], scale factor :    4.00000    2.00000    1.00000
  | Threshold for basis-dependent cutoff potential is   0.000000E+00
  | Found data for basic radial integration grid :    36 points, outermost radius =    7.000 A
  | Found multiplier for basic radial grid :   2
  | Found angular grid specification: user-specified.
  | Specified grid contains     6 separate shells.
  | Check grid settings after all constraints further below.
  | Found free-atom valence shell :  2 s   2.000
  | Found free-atom valence shell :  2 p   4.000
  | No ionic wave fns used. Skipping ion_occ.
  | No ionic wave fns used. Skipping ion_occ.
  | Found hydrogenic basis function :  2 p   1.800
  | Found hydrogenic basis function :  3 d   7.600
  | Found hydrogenic basis function :  3 s   6.400
  | Found hydrogenic basis function :  4 f  11.600
  | Found hydrogenic basis function :  3 p   6.200
  | Found hydrogenic basis function :  3 d   5.600
  | Found hydrogenic basis function :  5 g  17.600
  | Found hydrogenic basis function :  1 s   0.750
  Species O                   : Missing cutoff potential type.
  Defaulting to exp(1/x)/(1-x)^2 type cutoff potential.
  Species O : No 'logarithmic' tag. Using default grid for free atom:
  | Default logarithmic grid data [bohr] : 0.1000E-03 0.1000E+03 0.1012E+01
  Species O : On-site basis accuracy parameter (for Gram-Schmidt orthonormalisation) not specified.
  Using default value basis_acc =  0.1000000E-03.
  Species O                   : Using default innermost maximum threshold i_radial=  2 for radial functions.
  Species O                   : Default cutoff onset for free atom density etc. : 0.40000000E+01 AA.
  Species O                   : Basic radial grid will be enhanced according to radial_multiplier =   2, to contain    73 grid points.
  Forces will be computed.
  Cleaning forces before final output.
  Dipole moment will be written out.
 
  Finished reading input file 'control.in'. Consistency checks are next.
 
  Target number of points in a grid batch is not set. Defaulting to  100
  Method for grid partitioning is not set. Defaulting to parallel hash+maxmin partitioning.
  Batch size limit is not set. Defaulting to    200
  By default, will store active basis functions for each batch.
  If in need of memory, prune_basis_once .false. can be used to disable this option.
  communication_type for Hartree potential was not specified.
  Defaulting to calc_hartree .
  Defaulting to Pulay charge density mixer.
  Pulay mixer: Number of relevant iterations not set.
  Defaulting to    8 iterations.
  Pulay mixer: Number of initial linear mixing iterations not set.
  Defaulting to    0 iterations.
  Work space size for distributed Hartree potential not set.
  Defaulting to   0.200000E+03 MB.
  Mixing parameter for charge density mixing has not been set.
  Using default: charge_mix_param =     0.2000.
  Algorithm-dependent basis array size parameters:
  | n_max_pulay                         :        8
  Geometry relaxation not requested: no relaxation will be performed.
  Force calculation: scf convergence accuracy of forces not set.
  Defaulting to  0.1000E-03 eV/A.
  Handling of forces: Unphysical translation and rotation will be removed from forces.
  No accuracy limit for integral partition fn. given. Defaulting to  0.1000E-14.
  No threshold value for u(r) in integrations given. Defaulting to  0.1000E-05.
  No occupation type (smearing scheme) given. Defaulting to Gaussian broadening, width =  0.1000E-01 eV.
  No accuracy for occupation numbers given. Defaulting to  0.1000E-07.
  No threshold value for occupation numbers given. Defaulting to  0.0000E+00.
  No accuracy for fermi level given. Defaulting to  0.1000E-19.
  Maximum # of iterations to find E_F not set. Defaulting to  200.
  Preferred method for the eigenvalue solver ('KS_method') not specified in 'control.in'.
  Calling blacs routine to test compilation state
  The best choice would be 'elpa', but your version of FHI-aims is compiled without scalapack support.
  Defaulting to 'lapack_fast' instead (serial solution, time will not improve with more CPUs).
  Will not use alltoall communication since running on < 1024 CPUs.
  Threshold for basis singularities not set.
  Default threshold for basis singularities:  0.1000E-04
  partition_type (choice of integration weights) for integrals was not specified.
  | Using a version of the partition function of Stratmann and coworkers ('stratmann_smoother').
  | At each grid point, the set of atoms used to build the partition table is smoothly restricted to
  | only those atoms whose free-atom density would be non-zero at that grid point.
  Partitioning for Hartree potential was not defined. Using partition_type for integrals.
  | Adjusted default value of keyword multip_moments_threshold to:       0.10000000E-11
  | This value may affect high angular momentum components of the Hartree potential in periodic systems.
  No q(lm)/r^(l+1) cutoff set for long-range Hartree potential.
  | Using default value of  0.100000E-09 .
  | Verify using the multipole_threshold keyword.
  Defaulting to new monopole extrapolation.
  Density update method: automatic selection selected.
------------------------------------------------------------


------------------------------------------------------------
          Reading geometry description geometry.in.
------------------------------------------------------------
 * Warning: Initial charge and total charge of the system are inconsistent.
 * Selected charge in control.in:     1.0000* Sum of initial charges in geometry.in:     0.0000
  Input structure read successfully.
  The structure contains        2 atoms,  and a total of         15.000 electrons.

  Input geometry:
  | No unit cell requested.
  | Atomic structure:
  |       Atom                x [A]            y [A]            z [A]
  |    1: Species O             -0.002500         0.000000         0.042359
  |    2: Species O              0.000000         0.000000         1.165141
  |

  | The smallest distance between any two atoms is         1.12278438 AA.
  |
  | The first atom of this pair is atom number                      1 .
  | The second atom of this pair is atom number                     2 .

  Number of empty states per atom not set in control.in - providing a guess from actual geometry.
  | Total number of empty states used during s.c.f. cycle:        6
  If you use a very high smearing, use empty_states (per atom!) in control.in to increase this value.

  Structure-dependent array size parameters: 
  | Maximum number of distinct radial functions  :       11
  | Maximum number of basis functions            :       78
  | Number of Kohn-Sham states (occupied + empty):       14
------------------------------------------------------------

------------------------------------------------------------
          Preparing all fixed parts of the calculation.
------------------------------------------------------------
  Determining machine precision:
    2.225073858507201E-308
  Setting up grids for atomic and cluster calculations.

  Creating wave function, potential, and density for free atoms.

  Species: O

  List of occupied orbitals and eigenvalues:
    n    l              occ      energy [Ha]    energy [eV]
    1    0           2.0000       -18.898576      -514.2564
    2    0           2.0000        -0.878795       -23.9132
    2    1           4.0000        -0.332075        -9.0362

  Creating fixed part of basis set: Ionic, confined, hydrogenic.
 
  O                    hydrogenic:
 
  List of hydrogenic basis orbitals: 
    n    l      effective z      eigenvalue [eV]  inner max. [A]     outer max. [A]     outer radius [A]   
    2    1         1.800000       -11.0118           1.178562           1.178562           5.432602
    3    2         7.600000       -87.3183           0.624125           0.624125           4.634338
    3    0         6.400000       -61.9210           0.061167           1.081902           5.110480
    4    3        11.600000      -114.4239           0.731631           0.731631           4.522403
    3    1         6.200000       -58.1114           0.255680           1.030270           5.110480
    3    2         5.600000       -47.4083           0.847233           0.847233           5.173339
    5    4        17.600000      -168.5800           0.749740           0.749740           4.051222
    1    0         0.750000        -7.6499           0.705284           0.705284           5.366593
 

  Adding cutoff potential to free-atom effective potential.
  Creating atomic-like basis functions for current effective potential.

  Species O                   :

  List of atomic basis orbitals and eigenvalues:
    n    l      energy [Ha]    energy [eV]    outer radius [A]
    1    0       -18.898576      -514.2564       1.415765
    2    0        -0.878795       -23.9132       5.048385
    2    1        -0.332075        -9.0362       5.301386

  Assembling full basis from fixed parts.
  | Species O :   atomic orbital   1 s accepted.
  | Species O :   atomic orbital   2 s accepted.
  | Species O :    hydro orbital   3 s accepted.
  | Species O :    hydro orbital   1 s accepted.
  | Species O :   atomic orbital   2 p accepted.
  | Species O :    hydro orbital   2 p accepted.
  | Species O :    hydro orbital   3 p accepted.
  | Species O :    hydro orbital   3 d accepted.
  | Species O :    hydro orbital   3 d accepted.
  | Species O :    hydro orbital   4 f accepted.
  | Species O :    hydro orbital   5 g accepted.
 
  Basis size parameters after reduction:
  | Total number of radial functions:       11
  | Total number of basis functions :       78
 
  Testing on-site integration grid accuracy.
  |  Species  Function  <phi|h_atom|phi> (log., in eV)  <phi|h_atom|phi> (rad., in eV)
           1        1               -514.2564144315               -514.2564099626
           1        2                -23.9132357102                -23.9132356433
           1        3                 17.5398579759                 17.5398338425
           1        4                 14.5207278950                 14.5207740449
           1        5                 -9.0362392718                 -9.0362394845
           1        6                  7.9056275927                  7.9056237490
           1        7                 33.4201658992                 33.4201612015
           1        8                 45.8231952720                 45.8231953152
           1        9                 52.1937595491                 52.1937593440
           1       10                 85.4062894308                 85.4062894578
           1       11                142.0975701139                142.0975701391

  Preparing densities etc. for the partition functions (integrals / Hartree potential).

  Preparations completed.
  max(cpu_time)          :      0.145 s.
  Wall clock time (cpu1) :      0.169 s.
------------------------------------------------------------

------------------------------------------------------------
          Begin self-consistency loop: Initialization.

          Date     :  20190722, Time     :  144407.845
------------------------------------------------------------

  Initializing index lists of integration centers etc. from given atomic structure:
  | Number of centers in hartree potential         :         2
  | Number of centers in hartree multipole         :         2
  | Number of centers in electron density summation:         2
  | Number of centers in basis integrals           :         2
  | Number of centers in integrals                 :         2
  | Number of centers in hamiltonian               :         2
  Partitioning the integration grid into batches with parallel hashing+maxmin method.
  | Number of batches:      845
  | Maximal batch size:     110
  | Minimal batch size:      49
  | Average batch size:      63.030
  | Standard deviation of batch sizes:      18.974

  Integration load balanced across     4 MPI tasks.
  Work distribution over tasks is as follows:
  Task     0 has      13371 integration points.
  Task     1 has      13288 integration points.
  Task     2 has      13340 integration points.
  Task     3 has      13261 integration points.
  Initializing partition tables, free-atom densities, potentials, etc. across the integration grid (initialize_grid_storage).
  | initialize_grid_storage: Actual outermost partition radius vs. multipole_radius_free
  | (-- VB: in principle, multipole_radius_free should be larger, hence this output)
  | Species        1: Confinement radius =              6.000000000000000 AA, multipole_radius_free =              6.064445521808699 AA.
  | Species        1: outer_partition_radius set to              6.064445521808699 AA .
  | Original list of interatomic distances with           2 x          2 entries is created.
  | Net number of integration points:    53260
  | of which are non-zero points    :    49990
  Obtaining max. number of non-zero basis functions in each batch (get_n_compute_maxes).
  | Maximal number of non-zero basis functions:       78 in task     0
  | Maximal number of non-zero basis functions:       78 in task     1
  | Maximal number of non-zero basis functions:       78 in task     2
  | Maximal number of non-zero basis functions:       78 in task     3
  Selecting the method for density update.
  Loop over occupied states selected for charge density update.
  Integrating Hamiltonian matrix: batch-based integration.
  Time summed over all CPUs for integration: real work        0.182 s, elapsed        0.183 s
  Integrating overlap matrix.
  Time summed over all CPUs for integration: real work        0.062 s, elapsed        0.063 s

  Reading cluster restart information from file restart
  Writing Kohn-Sham eigenvalues.

  State    Occupation    Eigenvalue [Ha]    Eigenvalue [eV]
      1       2.00000         -18.889873         -514.01961
      2       2.00000         -18.889654         -514.01363
      3       2.00000          -1.267293          -34.48480
      4       2.00000          -0.701439          -19.08712
      5       2.00000          -0.502548          -13.67503
      6       2.00000          -0.502548          -13.67503
      7       2.00000          -0.494805          -13.46433
      8       1.00000          -0.186832           -5.08397
      9       1.00000          -0.186832           -5.08397
     10       0.00000           0.098748            2.68707
     11       0.00000           0.105369            2.86723
     12       0.00000           0.133112            3.62217
     13       0.00000           0.000000            0.00000
     14       0.00000           0.000000            0.00000

  Highest occupied state (VBM) at     -5.08396644 eV
  | Occupation number:      1.00000095

  Lowest unoccupied state (CBM) at    -5.08396642 eV
  | Occupation number:      0.99999905

  Overall HOMO-LUMO gap:      0.00000002 eV.
*** get_ev_sum_p0 expected pure occ_numbers
*** sum(occ_numbers) =  1.6000000000208626E+01 instead of  1.5000000000000000E+01
  Calculating total energy contributions from superposition of free atom densities.
*** get_entropy_correction expected pure occ_numbers
*** sum(occ_numbers) =  1.6000000000208626E+01 instead of  1.5000000000000000E+01
*** get_penalty_energy expected pure occ_numbers
*** sum(occ_numbers) =  1.6000000000208626E+01 instead of  1.5000000000000000E+01

  Total energy components:
  | Sum of eigenvalues            :         -82.86998572 Ha       -2255.00704487 eV
  | XC energy correction          :         -16.82076998 Ha        -457.71643950 eV
  | XC potential correction       :          21.62723246 Ha         588.50693812 eV
  | Free-atom electrostatic energy:         -71.50995483 Ha       -1945.88487651 eV
  | Hartree energy correction     :           0.00000000 Ha           0.00000000 eV
  | Entropy correction            :          -0.00020734 Ha          -0.00564190 eV
  | ---------------------------
  | Total energy                  :        -149.57347807 Ha       -4070.10142275 eV
  | Total energy, T -> 0          :        -149.57368541 Ha       -4070.10706465 eV  <-- do not rely on this value for anything but (periodic) metals
  | Electronic free energy        :        -149.57389274 Ha       -4070.11270654 eV

  Derived energy quantities:
  | Kinetic energy                :         150.56069415 Ha        4096.96493907 eV
  | Electrostatic energy          :        -283.31340224 Ha       -7709.34992232 eV
  | Energy correction for multipole
  | error in Hartree potential    :           0.00000000 Ha           0.00000000 eV
  | Sum of eigenvalues per atom                           :       -1127.50352243 eV
  | Total energy (T->0) per atom                          :       -2035.05353232 eV  <-- do not rely on this value for anything but (periodic) metals
  | Electronic free energy per atom                       :       -2035.05635327 eV
  Initialize hartree_potential_storage
  Max. number of atoms included in rho_multipole:            2

  End scf initialization - timings             :  max(cpu_time)    wall_clock(cpu1)
  | Time for scf. initialization               :        0.124 s           0.143 s
  | Boundary condition initialization          :        0.000 s           0.002 s
  | Integration                                :        0.060 s           0.065 s
  | Solution of K.-S. eqns.                    :        0.007 s           0.007 s
  | Grid partitioning                          :        0.022 s           0.024 s
  | Preloading free-atom quantities on grid    :        0.016 s           0.018 s
  | Free-atom superposition energy             :        0.010 s           0.009 s
  | Total energy evaluation                    :        0.001 s           0.002 s
------------------------------------------------------------

------------------------------------------------------------
          Initial SCF-cycle to compute last known
          density from restart information.

  Date     :  20190722, Time     :  144407.991
------------------------------------------------------------
*** scf_solver:charge expected kweighted occ_numbers
*** sum(occ_numbers) =  1.6000000000208626E+01 instead of  1.5000000000000000E+01
  Evaluating new KS density.
*** update_density_and_forces_p2 expected kweighted occ_numbers
*** sum(occ_numbers) =  1.6000000000208626E+01 instead of  1.5000000000000000E+01
  Integration grid: deviation in total charge (<rho> - N_e) =   1.000000E+00

  Evaluating partitioned Hartree potential by multipole expansion.
  | Analytical far-field extrapolation by fixed multipoles:
  | Hartree multipole sum: apparent total charge =  -0.177415E-06
  Summing up the Hartree potential.
  Time summed over all CPUs for potential: real work        0.099 s, elapsed        0.100 s
  | RMS charge density error from multipole expansion :   0.646460E-03

  Integrating Hamiltonian matrix: batch-based integration.
  Time summed over all CPUs for integration: real work        0.166 s, elapsed        0.168 s

  Updating Kohn-Sham eigenvalues, eigenvectors, occupation numbers, and Fermi level.
  Solving generalized eigenproblem
  Updating Kohn-Sham eigenvalues and eigenfunctions.
  Transforming overlap matrix and checking for singularities.
  Overlap matrix is nonsingular:
  | Lowest eigenvalue:  0.185756E-03
  Solving real generalised eigenvalue problem by standard LAPACK (fast)
  Determining occupation numbers for Kohn-Sham eigenstates.
  | Chemical potential (Fermi level) in eV                 : -.50887375E+01
  | Error in electron count due to remaining E_F inaccuracy: 0.15594637E-10
  | Maximum occupation number of highest empty state:  0.00E+00

  Highest occupied state (VBM) at    -13.46433316 eV
  | Occupation number:      2.00000000

  Lowest unoccupied state (CBM) at    -5.08396865 eV
  | Occupation number:      0.50004598

  Overall HOMO-LUMO gap:      8.38036451 eV.

  Total energy components:
  | Sum of eigenvalues            :         -82.68315455 Ha       -2249.92311021 eV
  | XC energy correction          :         -16.91595020 Ha        -460.30642498 eV
  | XC potential correction       :          21.75097681 Ha         591.87419331 eV
  | Free-atom electrostatic energy:         -71.50995483 Ha       -1945.88487651 eV
  | Hartree energy correction     :          -0.65623129 Ha         -17.85696203 eV
  | Entropy correction            :          -0.00016515 Ha          -0.00449404 eV
  | ---------------------------
  | Total energy                  :        -150.01431406 Ha       -4082.09718041 eV
  | Total energy, T -> 0          :        -150.01447921 Ha       -4082.10167445 eV  <-- do not rely on this value for anything but (periodic) metals
  | Electronic free energy        :        -150.01464437 Ha       -4082.10616849 eV

  Derived energy quantities:
  | Kinetic energy                :         150.39445872 Ha        4092.44144280 eV
  | Electrostatic energy          :        -283.49282258 Ha       -7714.23219823 eV
  | Energy correction for multipole
  | error in Hartree potential    :          -0.00059256 Ha          -0.01612449 eV
  | Sum of eigenvalues per atom                           :       -1124.96155511 eV
  | Total energy (T->0) per atom                          :       -2041.05083723 eV  <-- do not rely on this value for anything but (periodic) metals
  | Electronic free energy per atom                       :       -2041.05308424 eV

  Self-consistency convergence accuracy:
  | Change of charge density      :  0.1358E+00
  | Change of sum of eigenvalues  :  0.5084E+01 eV
  | Change of total energy        : -0.1200E+02 eV

  End self-consistency iteration #     0       :  max(cpu_time)    wall_clock(cpu1)
  | Time for this iteration                    :        0.117 s           0.130 s
  | Charge density update                      :        0.033 s           0.036 s
  | Density mixing                             :        0.001 s           0.001 s
  | Hartree multipole update                   :        0.006 s           0.007 s
  | Hartree multipole summation                :        0.026 s           0.026 s
  | Integration                                :        0.043 s           0.042 s
  | Solution of K.-S. eqns.                    :        0.010 s           0.015 s
  | Total energy evaluation                    :        0.000 s           0.001 s
------------------------------------------------------------

------------------------------------------------------------
          Begin self-consistency iteration #    1

  Date     :  20190722, Time     :  144408.122
------------------------------------------------------------
  Evaluating new KS density.
  Integration grid: deviation in total charge (<rho> - N_e) =   1.542944E-11
  Pulay mixing of updated and previous charge densities.

  Evaluating partitioned Hartree potential by multipole expansion.
  | Analytical far-field extrapolation by fixed multipoles:
  | Hartree multipole sum: apparent total charge =   0.200000E+00
  Summing up the Hartree potential.
  Time summed over all CPUs for potential: real work        0.097 s, elapsed        0.097 s
  | RMS charge density error from multipole expansion :   0.568934E-03

  Integrating Hamiltonian matrix: batch-based integration.
  Time summed over all CPUs for integration: real work        0.166 s, elapsed        0.168 s

  Updating Kohn-Sham eigenvalues, eigenvectors, occupation numbers, and Fermi level.
  Solving generalized eigenproblem
  Updating Kohn-Sham eigenvalues and eigenfunctions.
  Solving real generalised eigenvalue problem by standard LAPACK (fast)
  Determining occupation numbers for Kohn-Sham eigenstates.
  | Chemical potential (Fermi level) in eV                 : -.81702213E+01
  | Error in electron count due to remaining E_F inaccuracy: 0.78177465E-11
  | Maximum occupation number of highest empty state:  0.00E+00

  Writing Kohn-Sham eigenvalues.

  State    Occupation    Eigenvalue [Ha]    Eigenvalue [eV]
      1       2.00000         -19.044718         -518.23316
      2       2.00000         -19.044500         -518.22721
      3       2.00000          -1.391441          -37.86304
      4       2.00000          -0.812974          -22.12216
      5       2.00000          -0.616512          -16.77616
      6       2.00000          -0.616512          -16.77615
      7       2.00000          -0.606202          -16.49561
      8       0.50041          -0.300075           -8.16546
      9       0.49959          -0.300075           -8.16545
     10       0.00000           0.042790            1.16439
     11       0.00000           0.050113            1.36365
     12       0.00000           0.078170            2.12711
     13       0.00000           0.078170            2.12712
     14       0.00000           0.157547            4.28708

  Highest occupied state (VBM) at    -16.49560630 eV
  | Occupation number:      2.00000000

  Lowest unoccupied state (CBM) at    -8.16545646 eV
  | Occupation number:      0.50040928

  Overall HOMO-LUMO gap:      8.33014984 eV.

  Total energy components:
  | Sum of eigenvalues            :         -84.56579671 Ha       -2301.15240987 eV
  | XC energy correction          :         -16.76353526 Ha        -456.15900361 eV
  | XC potential correction       :          21.55138840 Ha         586.44311626 eV
  | Free-atom electrostatic energy:         -71.50995483 Ha       -1945.88487651 eV
  | Hartree energy correction     :           1.36996807 Ha          37.27872791 eV
  | Entropy correction            :          -0.00016515 Ha          -0.00449404 eV
  | ---------------------------
  | Total energy                  :        -149.91793034 Ha       -4079.47444582 eV
  | Total energy, T -> 0          :        -149.91809549 Ha       -4079.47893986 eV  <-- do not rely on this value for anything but (periodic) metals
  | Electronic free energy        :        -149.91826064 Ha       -4079.48343390 eV

  Derived energy quantities:
  | Kinetic energy                :         149.84166534 Ha        4077.39916961 eV
  | Electrostatic energy          :        -282.99606041 Ha       -7700.71461183 eV
  | Energy correction for multipole
  | error in Hartree potential    :          -0.00047716 Ha          -0.01298415 eV
  | Sum of eigenvalues per atom                           :       -1150.57620494 eV
  | Total energy (T->0) per atom                          :       -2039.73946993 eV  <-- do not rely on this value for anything but (periodic) metals
  | Electronic free energy per atom                       :       -2039.74171695 eV

  Self-consistency convergence accuracy:
  | Change of charge density      :  0.2168E+00
  | Change of sum of eigenvalues  : -0.5123E+02 eV
  | Change of total energy        :  0.2623E+01 eV

  End self-consistency iteration #     1       :  max(cpu_time)    wall_clock(cpu1)
  | Time for this iteration                    :        0.107 s           0.108 s
  | Charge density update                      :        0.030 s           0.029 s
  | Density mixing                             :        0.001 s           0.002 s
  | Hartree multipole update                   :        0.004 s           0.004 s
  | Hartree multipole summation                :        0.026 s           0.025 s
  | Integration                                :        0.043 s           0.042 s
  | Solution of K.-S. eqns.                    :        0.001 s           0.002 s
  | Total energy evaluation                    :        0.001 s           0.001 s
------------------------------------------------------------

------------------------------------------------------------
          Begin self-consistency iteration #    2

  Date     :  20190722, Time     :  144408.231
------------------------------------------------------------
  Evaluating new KS density.
  Integration grid: deviation in total charge (<rho> - N_e) =   7.771561E-12
  Pulay mixing of updated and previous charge densities.

  Evaluating partitioned Hartree potential by multipole expansion.
  | Analytical far-field extrapolation by fixed multipoles:
  | Hartree multipole sum: apparent total charge =   0.551826E+00
  Summing up the Hartree potential.
  Time summed over all CPUs for potential: real work        0.096 s, elapsed        0.097 s
  | RMS charge density error from multipole expansion :   0.499238E-03

  Integrating Hamiltonian matrix: batch-based integration.
  Time summed over all CPUs for integration: real work        0.166 s, elapsed        0.168 s

  Updating Kohn-Sham eigenvalues, eigenvectors, occupation numbers, and Fermi level.
  Solving generalized eigenproblem
  Updating Kohn-Sham eigenvalues and eigenfunctions.
  Solving real generalised eigenvalue problem by standard LAPACK (fast)
  Determining occupation numbers for Kohn-Sham eigenstates.
  | Chemical potential (Fermi level) in eV                 : -.13092144E+02
  | Error in electron count due to remaining E_F inaccuracy: -.84199314E-12
  | Maximum occupation number of highest empty state:  0.00E+00

  Highest occupied state (VBM) at    -21.31585147 eV
  | Occupation number:      2.00000000

  Lowest unoccupied state (CBM) at   -13.08746893 eV
  | Occupation number:      0.50849935

  Overall HOMO-LUMO gap:      8.22838254 eV.

  Total energy components:
  | Sum of eigenvalues            :         -87.47618170 Ha       -2380.34801476 eV
  | XC energy correction          :         -16.54916598 Ha        -450.32571863 eV
  | XC potential correction       :          21.27064167 Ha         578.80360891 eV
  | Free-atom electrostatic energy:         -71.50995483 Ha       -1945.88487651 eV
  | Hartree energy correction     :           4.43982303 Ha         120.81373153 eV
  | Entropy correction            :          -0.00016514 Ha          -0.00449364 eV
  | ---------------------------
  | Total energy                  :        -149.82483782 Ha       -4076.94126946 eV
  | Total energy, T -> 0          :        -149.82500295 Ha       -4076.94576309 eV  <-- do not rely on this value for anything but (periodic) metals
  | Electronic free energy        :        -149.82516809 Ha       -4076.95025673 eV

  Derived energy quantities:
  | Kinetic energy                :         149.14690070 Ha        4058.49366203 eV
  | Electrostatic energy          :        -282.42257254 Ha       -7685.10921286 eV
  | Energy correction for multipole
  | error in Hartree potential    :          -0.00037145 Ha          -0.01010755 eV
  | Sum of eigenvalues per atom                           :       -1190.17400738 eV
  | Total energy (T->0) per atom                          :       -2038.47288155 eV  <-- do not rely on this value for anything but (periodic) metals
  | Electronic free energy per atom                       :       -2038.47512837 eV

  Self-consistency convergence accuracy:
  | Change of charge density      :  0.1326E+00
  | Change of sum of eigenvalues  : -0.7920E+02 eV
  | Change of total energy        :  0.2533E+01 eV

  End self-consistency iteration #     2       :  max(cpu_time)    wall_clock(cpu1)
  | Time for this iteration                    :        0.105 s           0.104 s
  | Charge density update                      :        0.030 s           0.029 s
  | Density mixing                             :        0.002 s           0.002 s
  | Hartree multipole update                   :        0.005 s           0.003 s
  | Hartree multipole summation                :        0.025 s           0.026 s
  | Integration                                :        0.043 s           0.042 s
  | Solution of K.-S. eqns.                    :        0.001 s           0.001 s
  | Total energy evaluation                    :        0.001 s           0.001 s
------------------------------------------------------------

------------------------------------------------------------
          Begin self-consistency iteration #    3

  Date     :  20190722, Time     :  144408.336
------------------------------------------------------------
  Evaluating new KS density.
  Integration grid: deviation in total charge (<rho> - N_e) =  -9.450218E-13
  Pulay mixing of updated and previous charge densities.

  Evaluating partitioned Hartree potential by multipole expansion.
  | Analytical far-field extrapolation by fixed multipoles:
  | Hartree multipole sum: apparent total charge =   0.100035E+01
  Summing up the Hartree potential.
  Time summed over all CPUs for potential: real work        0.099 s, elapsed        0.099 s
  | RMS charge density error from multipole expansion :   0.483198E-03

  Integrating Hamiltonian matrix: batch-based integration.
  Time summed over all CPUs for integration: real work        0.168 s, elapsed        0.170 s

  Updating Kohn-Sham eigenvalues, eigenvectors, occupation numbers, and Fermi level.
  Solving generalized eigenproblem
  Updating Kohn-Sham eigenvalues and eigenfunctions.
  Solving real generalised eigenvalue problem by standard LAPACK (fast)
  Determining occupation numbers for Kohn-Sham eigenstates.
  | Chemical potential (Fermi level) in eV                 : -.17800409E+02
  | Error in electron count due to remaining E_F inaccuracy: -.29323211E-08
  | Maximum occupation number of highest empty state:  0.00E+00

  Highest occupied state (VBM) at    -25.95467146 eV
  | Occupation number:      2.00000000

  Lowest unoccupied state (CBM) at   -17.79920842 eV
  | Occupation number:      0.86518877

  Overall HOMO-LUMO gap:      8.15546304 eV.

  Total energy components:
  | Sum of eigenvalues            :         -90.03665088 Ha       -2450.02192606 eV
  | XC energy correction          :         -16.42420946 Ha        -446.92547865 eV
  | XC potential correction       :          21.10689358 Ha         574.34779668 eV
  | Free-atom electrostatic energy:         -71.50995483 Ha       -1945.88487651 eV
  | Hartree energy correction     :           7.07030085 Ha         192.39267499 eV
  | Entropy correction            :          -0.00013607 Ha          -0.00370275 eV
  | ---------------------------
  | Total energy                  :        -149.79362074 Ha       -4076.09180954 eV
  | Total energy, T -> 0          :        -149.79375681 Ha       -4076.09551229 eV  <-- do not rely on this value for anything but (periodic) metals
  | Electronic free energy        :        -149.79389288 Ha       -4076.09921504 eV

  Derived energy quantities:
  | Kinetic energy                :         149.27068756 Ha        4061.86207384 eV
  | Electrostatic energy          :        -282.64009884 Ha       -7691.02840474 eV
  | Energy correction for multipole
  | error in Hartree potential    :          -0.00051915 Ha          -0.01412675 eV
  | Sum of eigenvalues per atom                           :       -1225.01096303 eV
  | Total energy (T->0) per atom                          :       -2038.04775614 eV  <-- do not rely on this value for anything but (periodic) metals
  | Electronic free energy per atom                       :       -2038.04960752 eV

  Self-consistency convergence accuracy:
  | Change of charge density      :  0.5898E-01
  | Change of sum of eigenvalues  : -0.6967E+02 eV
  | Change of total energy        :  0.8495E+00 eV

  End self-consistency iteration #     3       :  max(cpu_time)    wall_clock(cpu1)
  | Time for this iteration                    :        0.114 s           0.115 s
  | Charge density update                      :        0.031 s           0.032 s
  | Density mixing                             :        0.004 s           0.004 s
  | Hartree multipole update                   :        0.004 s           0.004 s
  | Hartree multipole summation                :        0.026 s           0.026 s
  | Integration                                :        0.043 s           0.043 s
  | Solution of K.-S. eqns.                    :        0.004 s           0.004 s
  | Total energy evaluation                    :        0.000 s           0.001 s
------------------------------------------------------------

------------------------------------------------------------
          Begin self-consistency iteration #    4

  Date     :  20190722, Time     :  144408.452
------------------------------------------------------------
  Evaluating new KS density.
  Integration grid: deviation in total charge (<rho> - N_e) =  -2.932428E-09
  Pulay mixing of updated and previous charge densities.

  Evaluating partitioned Hartree potential by multipole expansion.
  | Analytical far-field extrapolation by fixed multipoles:
  | Hartree multipole sum: apparent total charge =   0.102346E+01
  Summing up the Hartree potential.
  Time summed over all CPUs for potential: real work        0.096 s, elapsed        0.097 s
  | RMS charge density error from multipole expansion :   0.485010E-03

  Integrating Hamiltonian matrix: batch-based integration.
  Time summed over all CPUs for integration: real work        0.165 s, elapsed        0.167 s

  Updating Kohn-Sham eigenvalues, eigenvectors, occupation numbers, and Fermi level.
  Solving generalized eigenproblem
  Updating Kohn-Sham eigenvalues and eigenfunctions.
  Solving real generalised eigenvalue problem by standard LAPACK (fast)
  Determining occupation numbers for Kohn-Sham eigenstates.
  | Chemical potential (Fermi level) in eV                 : -.18010108E+02
  | Error in electron count due to remaining E_F inaccuracy: 0.10658141E-12
  | Maximum occupation number of highest empty state:  0.00E+00

  Highest occupied state (VBM) at    -26.16335326 eV
  | Occupation number:      2.00000000

  Lowest unoccupied state (CBM) at   -18.00535471 eV
  | Occupation number:      0.50145346

  Overall HOMO-LUMO gap:      8.15799855 eV.

  Total energy components:
  | Sum of eigenvalues            :         -90.14603270 Ha       -2452.99835699 eV
  | XC energy correction          :         -16.42077139 Ha        -446.83192413 eV
  | XC potential correction       :          21.10239776 Ha         574.22545923 eV
  | Free-atom electrostatic energy:         -71.50995483 Ha       -1945.88487651 eV
  | Hartree energy correction     :           7.18071312 Ha         195.39714574 eV
  | Entropy correction            :          -0.00016515 Ha          -0.00449403 eV
  | ---------------------------
  | Total energy                  :        -149.79364805 Ha       -4076.09255266 eV
  | Total energy, T -> 0          :        -149.79381320 Ha       -4076.09704669 eV  <-- do not rely on this value for anything but (periodic) metals
  | Electronic free energy        :        -149.79397835 Ha       -4076.10154071 eV

  Derived energy quantities:
  | Kinetic energy                :         149.29534974 Ha        4062.53316582 eV
  | Electrostatic energy          :        -282.66822639 Ha       -7691.79379434 eV
  | Energy correction for multipole
  | error in Hartree potential    :          -0.00053155 Ha          -0.01446411 eV
  | Sum of eigenvalues per atom                           :       -1226.49917850 eV
  | Total energy (T->0) per atom                          :       -2038.04852334 eV  <-- do not rely on this value for anything but (periodic) metals
  | Electronic free energy per atom                       :       -2038.05077036 eV

  Self-consistency convergence accuracy:
  | Change of charge density      :  0.1290E+00
  | Change of sum of eigenvalues  : -0.2976E+01 eV
  | Change of total energy        : -0.7431E-03 eV

  End self-consistency iteration #     4       :  max(cpu_time)    wall_clock(cpu1)
  | Time for this iteration                    :        0.105 s           0.105 s
  | Charge density update                      :        0.030 s           0.030 s
  | Density mixing                             :        0.002 s           0.002 s
  | Hartree multipole update                   :        0.004 s           0.004 s
  | Hartree multipole summation                :        0.025 s           0.025 s
  | Integration                                :        0.042 s           0.042 s
  | Solution of K.-S. eqns.                    :        0.001 s           0.001 s
  | Total energy evaluation                    :        0.001 s           0.001 s
------------------------------------------------------------

------------------------------------------------------------
          Begin self-consistency iteration #    5

  Date     :  20190722, Time     :  144408.558
------------------------------------------------------------
  Evaluating new KS density.
  Integration grid: deviation in total charge (<rho> - N_e) =   6.750156E-14
  Pulay mixing of updated and previous charge densities.

  Evaluating partitioned Hartree potential by multipole expansion.
  | Analytical far-field extrapolation by fixed multipoles:
  | Hartree multipole sum: apparent total charge =   0.993556E+00
  Summing up the Hartree potential.
  Time summed over all CPUs for potential: real work        0.096 s, elapsed        0.097 s
  | RMS charge density error from multipole expansion :   0.482393E-03

  Integrating Hamiltonian matrix: batch-based integration.
  Time summed over all CPUs for integration: real work        0.165 s, elapsed        0.167 s

  Updating Kohn-Sham eigenvalues, eigenvectors, occupation numbers, and Fermi level.
  Solving generalized eigenproblem
  Updating Kohn-Sham eigenvalues and eigenfunctions.
  Solving real generalised eigenvalue problem by standard LAPACK (fast)
  Determining occupation numbers for Kohn-Sham eigenstates.
  | Chemical potential (Fermi level) in eV                 : -.17483562E+02
  | Error in electron count due to remaining E_F inaccuracy: -.50997429E-10
  | Maximum occupation number of highest empty state:  0.00E+00

  Highest occupied state (VBM) at    -25.65093864 eV
  | Occupation number:      2.00000000

  Lowest unoccupied state (CBM) at   -17.47880807 eV
  | Occupation number:      0.50135217

  Overall HOMO-LUMO gap:      8.17213057 eV.

  Total energy components:
  | Sum of eigenvalues            :         -89.82536604 Ha       -2444.27257317 eV
  | XC energy correction          :         -16.44769188 Ha        -447.56446780 eV
  | XC potential correction       :          21.13765399 Ha         575.18483025 eV
  | Free-atom electrostatic energy:         -71.50995483 Ha       -1945.88487651 eV
  | Hartree energy correction     :           6.85225451 Ha         186.45933205 eV
  | Entropy correction            :          -0.00016515 Ha          -0.00449403 eV
  | ---------------------------
  | Total energy                  :        -149.79310425 Ha       -4076.07775518 eV
  | Total energy, T -> 0          :        -149.79326940 Ha       -4076.08224921 eV  <-- do not rely on this value for anything but (periodic) metals
  | Electronic free energy        :        -149.79343455 Ha       -4076.08674323 eV

  Derived energy quantities:
  | Kinetic energy                :         149.43643053 Ha        4066.37216956 eV
  | Electrostatic energy          :        -282.78184291 Ha       -7694.88545693 eV
  | Energy correction for multipole
  | error in Hartree potential    :          -0.00055365 Ha          -0.01506546 eV
  | Sum of eigenvalues per atom                           :       -1222.13628658 eV
  | Total energy (T->0) per atom                          :       -2038.04112460 eV  <-- do not rely on this value for anything but (periodic) metals
  | Electronic free energy per atom                       :       -2038.04337162 eV

  Self-consistency convergence accuracy:
  | Change of charge density      :  0.2179E-01
  | Change of sum of eigenvalues  :  0.8726E+01 eV
  | Change of total energy        :  0.1480E-01 eV

  End self-consistency iteration #     5       :  max(cpu_time)    wall_clock(cpu1)
  | Time for this iteration                    :        0.105 s           0.105 s
  | Charge density update                      :        0.030 s           0.030 s
  | Density mixing                             :        0.003 s           0.002 s
  | Hartree multipole update                   :        0.004 s           0.003 s
  | Hartree multipole summation                :        0.025 s           0.025 s
  | Integration                                :        0.042 s           0.042 s
  | Solution of K.-S. eqns.                    :        0.001 s           0.002 s
  | Total energy evaluation                    :        0.000 s           0.000 s
------------------------------------------------------------

------------------------------------------------------------
          Begin self-consistency iteration #    6

  Date     :  20190722, Time     :  144408.664
------------------------------------------------------------
  Evaluating new KS density.
  Integration grid: deviation in total charge (<rho> - N_e) =  -5.088197E-11
  Pulay mixing of updated and previous charge densities.

  Evaluating partitioned Hartree potential by multipole expansion.
  | Analytical far-field extrapolation by fixed multipoles:
  | Hartree multipole sum: apparent total charge =   0.999212E+00
  Summing up the Hartree potential.
  Time summed over all CPUs for potential: real work        0.098 s, elapsed        0.099 s
  | RMS charge density error from multipole expansion :   0.493712E-03

  Integrating Hamiltonian matrix: batch-based integration.
  Time summed over all CPUs for integration: real work        0.166 s, elapsed        0.169 s

  Updating Kohn-Sham eigenvalues, eigenvectors, occupation numbers, and Fermi level.
  Solving generalized eigenproblem
  Updating Kohn-Sham eigenvalues and eigenfunctions.
  Solving real generalised eigenvalue problem by standard LAPACK (fast)
  Determining occupation numbers for Kohn-Sham eigenstates.
  | Chemical potential (Fermi level) in eV                 : -.17447447E+02
  | Error in electron count due to remaining E_F inaccuracy: -.53290705E-14
  | Maximum occupation number of highest empty state:  0.00E+00

  Highest occupied state (VBM) at    -25.61428142 eV
  | Occupation number:      2.00000000

  Lowest unoccupied state (CBM) at   -17.44270450 eV
  | Occupation number:      0.50242536

  Overall HOMO-LUMO gap:      8.17157693 eV.

  Total energy components:
  | Sum of eigenvalues            :         -89.80039539 Ha       -2443.59308724 eV
  | XC energy correction          :         -16.45305186 Ha        -447.71032049 eV
  | XC potential correction       :          21.14478098 Ha         575.37876544 eV
  | Free-atom electrostatic energy:         -71.50995483 Ha       -1945.88487651 eV
  | Hartree energy correction     :           6.82553968 Ha         185.73238466 eV
  | Entropy correction            :          -0.00016515 Ha          -0.00449401 eV
  | ---------------------------
  | Total energy                  :        -149.79308143 Ha       -4076.07713414 eV
  | Total energy, T -> 0          :        -149.79324658 Ha       -4076.08162815 eV  <-- do not rely on this value for anything but (periodic) metals
  | Electronic free energy        :        -149.79341173 Ha       -4076.08612215 eV

  Derived energy quantities:
  | Kinetic energy                :         149.45592934 Ha        4066.90275909 eV
  | Electrostatic energy          :        -282.79595890 Ha       -7695.26957274 eV
  | Energy correction for multipole
  | error in Hartree potential    :          -0.00054546 Ha          -0.01484268 eV
  | Sum of eigenvalues per atom                           :       -1221.79654362 eV
  | Total energy (T->0) per atom                          :       -2038.04081407 eV  <-- do not rely on this value for anything but (periodic) metals
  | Electronic free energy per atom                       :       -2038.04306108 eV

  Self-consistency convergence accuracy:
  | Change of charge density      :  0.6618E-02
  | Change of sum of eigenvalues  :  0.6795E+00 eV
  | Change of total energy        :  0.6210E-03 eV

  End self-consistency iteration #     6       :  max(cpu_time)    wall_clock(cpu1)
  | Time for this iteration                    :        0.106 s           0.106 s
  | Charge density update                      :        0.030 s           0.029 s
  | Density mixing                             :        0.002 s           0.003 s
  | Hartree multipole update                   :        0.004 s           0.003 s
  | Hartree multipole summation                :        0.025 s           0.025 s
  | Integration                                :        0.043 s           0.043 s
  | Solution of K.-S. eqns.                    :        0.002 s           0.002 s
  | Total energy evaluation                    :        0.000 s           0.001 s
------------------------------------------------------------

------------------------------------------------------------
          Begin self-consistency iteration #    7

  Date     :  20190722, Time     :  144408.771
------------------------------------------------------------
  Evaluating new KS density.
  Integration grid: deviation in total charge (<rho> - N_e) =   3.552714E-13
  Pulay mixing of updated and previous charge densities.

  Evaluating partitioned Hartree potential by multipole expansion.
  | Analytical far-field extrapolation by fixed multipoles:
  | Hartree multipole sum: apparent total charge =   0.999658E+00
  Summing up the Hartree potential.
  Time summed over all CPUs for potential: real work        0.097 s, elapsed        0.097 s
  | RMS charge density error from multipole expansion :   0.494372E-03

  Integrating Hamiltonian matrix: batch-based integration.
  Time summed over all CPUs for integration: real work        0.165 s, elapsed        0.167 s

  Updating Kohn-Sham eigenvalues, eigenvectors, occupation numbers, and Fermi level.
  Solving generalized eigenproblem
  Updating Kohn-Sham eigenvalues and eigenfunctions.
  Solving real generalised eigenvalue problem by standard LAPACK (fast)
  Determining occupation numbers for Kohn-Sham eigenstates.
  | Chemical potential (Fermi level) in eV                 : -.17449379E+02
  | Error in electron count due to remaining E_F inaccuracy: -.20784263E-09
  | Maximum occupation number of highest empty state:  0.00E+00

  Highest occupied state (VBM) at    -25.61759033 eV
  | Occupation number:      2.00000000

  Lowest unoccupied state (CBM) at   -17.44465946 eV
  | Occupation number:      0.50452180

  Overall HOMO-LUMO gap:      8.17293087 eV.

  Total energy components:
  | Sum of eigenvalues            :         -89.80171304 Ha       -2443.62894239 eV
  | XC energy correction          :         -16.45294698 Ha        -447.70746647 eV
  | XC potential correction       :          21.14465470 Ha         575.37532921 eV
  | Free-atom electrostatic energy:         -71.50995483 Ha       -1945.88487651 eV
  | Hartree energy correction     :           6.82687884 Ha         185.76882514 eV
  | Entropy correction            :          -0.00016515 Ha          -0.00449393 eV
  | ---------------------------
  | Total energy                  :        -149.79308131 Ha       -4076.07713102 eV
  | Total energy, T -> 0          :        -149.79324646 Ha       -4076.08162495 eV  <-- do not rely on this value for anything but (periodic) metals
  | Electronic free energy        :        -149.79341161 Ha       -4076.08611887 eV

  Derived energy quantities:
  | Kinetic energy                :         149.45343112 Ha        4066.83477910 eV
  | Electrostatic energy          :        -282.79356545 Ha       -7695.20444366 eV
  | Energy correction for multipole
  | error in Hartree potential    :          -0.00054401 Ha          -0.01480336 eV
  | Sum of eigenvalues per atom                           :       -1221.81447120 eV
  | Total energy (T->0) per atom                          :       -2038.04081247 eV  <-- do not rely on this value for anything but (periodic) metals
  | Electronic free energy per atom                       :       -2038.04305944 eV

  Self-consistency convergence accuracy:
  | Change of charge density      :  0.1046E-02
  | Change of sum of eigenvalues  : -0.3586E-01 eV
  | Change of total energy        :  0.3120E-05 eV

  End self-consistency iteration #     7       :  max(cpu_time)    wall_clock(cpu1)
  | Time for this iteration                    :        0.105 s           0.106 s
  | Charge density update                      :        0.030 s           0.030 s
  | Density mixing                             :        0.003 s           0.003 s
  | Hartree multipole update                   :        0.004 s           0.003 s
  | Hartree multipole summation                :        0.025 s           0.025 s
  | Integration                                :        0.042 s           0.042 s
  | Solution of K.-S. eqns.                    :        0.001 s           0.002 s
  | Total energy evaluation                    :        0.000 s           0.000 s
------------------------------------------------------------

------------------------------------------------------------
          Begin self-consistency iteration #    8

  Date     :  20190722, Time     :  144408.878
------------------------------------------------------------
  Evaluating new KS density.
  Integration grid: deviation in total charge (<rho> - N_e) =  -2.078462E-10
  Pulay mixing of updated and previous charge densities.

  Evaluating partitioned Hartree potential by multipole expansion.
  | Analytical far-field extrapolation by fixed multipoles:
  | Hartree multipole sum: apparent total charge =   0.999896E+00
  Summing up the Hartree potential.
  Time summed over all CPUs for potential: real work        0.096 s, elapsed        0.097 s
  | RMS charge density error from multipole expansion :   0.494889E-03

  Integrating Hamiltonian matrix: batch-based integration.
  Time summed over all CPUs for integration: real work        0.166 s, elapsed        0.168 s

  Updating Kohn-Sham eigenvalues, eigenvectors, occupation numbers, and Fermi level.
  Solving generalized eigenproblem
  Updating Kohn-Sham eigenvalues and eigenfunctions.
  Solving real generalised eigenvalue problem by standard LAPACK (fast)
  Determining occupation numbers for Kohn-Sham eigenstates.
  | Chemical potential (Fermi level) in eV                 : -.17445889E+02
  | Error in electron count due to remaining E_F inaccuracy: -.20605739E-12
  | Maximum occupation number of highest empty state:  0.00E+00

  Highest occupied state (VBM) at    -25.61456292 eV
  | Occupation number:      2.00000000

  Lowest unoccupied state (CBM) at   -17.44115866 eV
  | Occupation number:      0.50348473

  Overall HOMO-LUMO gap:      8.17340427 eV.

  Total energy components:
  | Sum of eigenvalues            :         -89.79934088 Ha       -2443.56439246 eV
  | XC energy correction          :         -16.45330598 Ha        -447.71723529 eV
  | XC potential correction       :          21.14513123 Ha         575.38829622 eV
  | Free-atom electrostatic energy:         -71.50995483 Ha       -1945.88487651 eV
  | Hartree energy correction     :           6.82438937 Ha         185.70108306 eV
  | Entropy correction            :          -0.00016515 Ha          -0.00449397 eV
  | ---------------------------
  | Total energy                  :        -149.79308109 Ha       -4076.07712498 eV
  | Total energy, T -> 0          :        -149.79324624 Ha       -4076.08161895 eV  <-- do not rely on this value for anything but (periodic) metals
  | Electronic free energy        :        -149.79341139 Ha       -4076.08611292 eV

  Derived energy quantities:
  | Kinetic energy                :         149.45495733 Ha        4066.87630939 eV
  | Electrostatic energy          :        -282.79473244 Ha       -7695.23619908 eV
  | Energy correction for multipole
  | error in Hartree potential    :          -0.00054372 Ha          -0.01479526 eV
  | Sum of eigenvalues per atom                           :       -1221.78219623 eV
  | Total energy (T->0) per atom                          :       -2038.04080947 eV  <-- do not rely on this value for anything but (periodic) metals
  | Electronic free energy per atom                       :       -2038.04305646 eV

  Self-consistency convergence accuracy:
  | Change of charge density      :  0.1663E-02
  | Change of sum of eigenvalues  :  0.6455E-01 eV
  | Change of total energy        :  0.6044E-05 eV

  End self-consistency iteration #     8       :  max(cpu_time)    wall_clock(cpu1)
  | Time for this iteration                    :        0.106 s           0.105 s
  | Charge density update                      :        0.030 s           0.029 s
  | Density mixing                             :        0.003 s           0.003 s
  | Hartree multipole update                   :        0.004 s           0.004 s
  | Hartree multipole summation                :        0.025 s           0.025 s
  | Integration                                :        0.043 s           0.042 s
  | Solution of K.-S. eqns.                    :        0.001 s           0.001 s
  | Total energy evaluation                    :        0.001 s           0.001 s
------------------------------------------------------------

------------------------------------------------------------
          Begin self-consistency iteration #    9

  Date     :  20190722, Time     :  144408.986
------------------------------------------------------------
  Evaluating new KS density.
  Integration grid: deviation in total charge (<rho> - N_e) =  -2.025047E-13
  Pulay mixing of updated and previous charge densities.

  Evaluating partitioned Hartree potential by multipole expansion.
  | Analytical far-field extrapolation by fixed multipoles:
  | Hartree multipole sum: apparent total charge =   0.100005E+01
  Summing up the Hartree potential.
  Time summed over all CPUs for potential: real work        0.097 s, elapsed        0.097 s
  | RMS charge density error from multipole expansion :   0.495243E-03

  Integrating Hamiltonian matrix: batch-based integration.
  Time summed over all CPUs for integration: real work        0.166 s, elapsed        0.168 s

  Updating Kohn-Sham eigenvalues, eigenvectors, occupation numbers, and Fermi level.
  Solving generalized eigenproblem
  Updating Kohn-Sham eigenvalues and eigenfunctions.
  Solving real generalised eigenvalue problem by standard LAPACK (fast)
  Determining occupation numbers for Kohn-Sham eigenstates.
  | Chemical potential (Fermi level) in eV                 : -.17443362E+02
  | Error in electron count due to remaining E_F inaccuracy: 0.24336089E-12
  | Maximum occupation number of highest empty state:  0.00E+00

  Highest occupied state (VBM) at    -25.61233649 eV
  | Occupation number:      2.00000000

  Lowest unoccupied state (CBM) at   -17.43860538 eV
  | Occupation number:      0.50113517

  Overall HOMO-LUMO gap:      8.17373111 eV.

  Total energy components:
  | Sum of eigenvalues            :         -89.79762584 Ha       -2443.51772398 eV
  | XC energy correction          :         -16.45356268 Ha        -447.72422041 eV
  | XC potential correction       :          21.14547173 Ha         575.39756169 eV
  | Free-atom electrostatic energy:         -71.50995483 Ha       -1945.88487651 eV
  | Hartree energy correction     :           6.82259060 Ha         185.65213616 eV
  | Entropy correction            :          -0.00016515 Ha          -0.00449403 eV
  | ---------------------------
  | Total energy                  :        -149.79308102 Ha       -4076.07712305 eV
  | Total energy, T -> 0          :        -149.79324617 Ha       -4076.08161708 eV  <-- do not rely on this value for anything but (periodic) metals
  | Electronic free energy        :        -149.79341132 Ha       -4076.08611111 eV

  Derived energy quantities:
  | Kinetic energy                :         149.45608262 Ha        4066.90693002 eV
  | Electrostatic energy          :        -282.79560096 Ha       -7695.25983265 eV
  | Energy correction for multipole
  | error in Hartree potential    :          -0.00054353 Ha          -0.01479020 eV
  | Sum of eigenvalues per atom                           :       -1221.75886199 eV
  | Total energy (T->0) per atom                          :       -2038.04080854 eV  <-- do not rely on this value for anything but (periodic) metals
  | Electronic free energy per atom                       :       -2038.04305556 eV

  Self-consistency convergence accuracy:
  | Change of charge density      :  0.1233E-02
  | Change of sum of eigenvalues  :  0.4667E-01 eV
  | Change of total energy        :  0.1927E-05 eV

  End self-consistency iteration #     9       :  max(cpu_time)    wall_clock(cpu1)
  | Time for this iteration                    :        0.106 s           0.105 s
  | Charge density update                      :        0.029 s           0.029 s
  | Density mixing                             :        0.003 s           0.003 s
  | Hartree multipole update                   :        0.005 s           0.004 s
  | Hartree multipole summation                :        0.025 s           0.025 s
  | Integration                                :        0.042 s           0.042 s
  | Solution of K.-S. eqns.                    :        0.001 s           0.001 s
  | Total energy evaluation                    :        0.000 s           0.001 s
------------------------------------------------------------

------------------------------------------------------------
          Begin self-consistency iteration #   10

  Date     :  20190722, Time     :  144409.092
------------------------------------------------------------
  Evaluating new KS density.
  Integration grid: deviation in total charge (<rho> - N_e) =   2.149392E-13
  Pulay mixing of updated and previous charge densities.

  Evaluating partitioned Hartree potential by multipole expansion.
  | Analytical far-field extrapolation by fixed multipoles:
  | Hartree multipole sum: apparent total charge =   0.100004E+01
  Summing up the Hartree potential.
  Time summed over all CPUs for potential: real work        0.096 s, elapsed        0.097 s
  | RMS charge density error from multipole expansion :   0.495273E-03

  Integrating Hamiltonian matrix: batch-based integration.
  Time summed over all CPUs for integration: real work        0.165 s, elapsed        0.167 s

  Updating Kohn-Sham eigenvalues, eigenvectors, occupation numbers, and Fermi level.
  Solving generalized eigenproblem
  Updating Kohn-Sham eigenvalues and eigenfunctions.
  Solving real generalised eigenvalue problem by standard LAPACK (fast)
  Determining occupation numbers for Kohn-Sham eigenstates.
  | Chemical potential (Fermi level) in eV                 : -.17442717E+02
  | Error in electron count due to remaining E_F inaccuracy: 0.17941204E-12
  | Maximum occupation number of highest empty state:  0.00E+00

  Highest occupied state (VBM) at    -25.61169660 eV
  | Occupation number:      2.00000000

  Lowest unoccupied state (CBM) at   -17.43795586 eV
  | Occupation number:      0.50076656

  Overall HOMO-LUMO gap:      8.17374073 eV.

  Total energy components:
  | Sum of eigenvalues            :         -89.79722982 Ha       -2443.50694754 eV
  | XC energy correction          :         -16.45360479 Ha        -447.72536639 eV
  | XC potential correction       :          21.14552735 Ha         575.39907526 eV
  | Free-atom electrostatic energy:         -71.50995483 Ha       -1945.88487651 eV
  | Hartree energy correction     :           6.82218107 Ha         185.64099224 eV
  | Entropy correction            :          -0.00016515 Ha          -0.00449404 eV
  | ---------------------------
  | Total energy                  :        -149.79308101 Ha       -4076.07712293 eV
  | Total energy, T -> 0          :        -149.79324617 Ha       -4076.08161697 eV  <-- do not rely on this value for anything but (periodic) metals
  | Electronic free energy        :        -149.79341132 Ha       -4076.08611100 eV

  Derived energy quantities:
  | Kinetic energy                :         149.45625460 Ha        4066.91160974 eV
  | Electrostatic energy          :        -282.79573082 Ha       -7695.26336628 eV
  | Energy correction for multipole
  | error in Hartree potential    :          -0.00054350 Ha          -0.01478948 eV
  | Sum of eigenvalues per atom                           :       -1221.75347377 eV
  | Total energy (T->0) per atom                          :       -2038.04080848 eV  <-- do not rely on this value for anything but (periodic) metals
  | Electronic free energy per atom                       :       -2038.04305550 eV

  Self-consistency convergence accuracy:
  | Change of charge density      :  0.3977E-03
  | Change of sum of eigenvalues  :  0.1078E-01 eV
  | Change of total energy        :  0.1197E-06 eV

  End self-consistency iteration #    10       :  max(cpu_time)    wall_clock(cpu1)
  | Time for this iteration                    :        0.106 s           0.105 s
  | Charge density update                      :        0.030 s           0.029 s
  | Density mixing                             :        0.003 s           0.003 s
  | Hartree multipole update                   :        0.004 s           0.004 s
  | Hartree multipole summation                :        0.025 s           0.025 s
  | Integration                                :        0.042 s           0.042 s
  | Solution of K.-S. eqns.                    :        0.001 s           0.001 s
  | Total energy evaluation                    :        0.000 s           0.001 s
------------------------------------------------------------

------------------------------------------------------------
          Begin self-consistency iteration #   11

  Date     :  20190722, Time     :  144409.200
------------------------------------------------------------
  Evaluating new KS density.
  Integration grid: deviation in total charge (<rho> - N_e) =  -1.243450E-14
  Pulay mixing of updated and previous charge densities.

  Evaluating partitioned Hartree potential by multipole expansion.
  | Analytical far-field extrapolation by fixed multipoles:
  | Hartree multipole sum: apparent total charge =   0.999993E+00
  Summing up the Hartree potential.
  Time summed over all CPUs for potential: real work        0.096 s, elapsed        0.097 s
  | RMS charge density error from multipole expansion :   0.495331E-03

  Integrating Hamiltonian matrix: batch-based integration.
  Time summed over all CPUs for integration: real work        0.165 s, elapsed        0.167 s

  Updating Kohn-Sham eigenvalues, eigenvectors, occupation numbers, and Fermi level.
  Solving generalized eigenproblem
  Updating Kohn-Sham eigenvalues and eigenfunctions.
  Solving real generalised eigenvalue problem by standard LAPACK (fast)
  Determining occupation numbers for Kohn-Sham eigenstates.
  | Chemical potential (Fermi level) in eV                 : -.17441277E+02
  | Error in electron count due to remaining E_F inaccuracy: -.12256862E-12
  | Maximum occupation number of highest empty state:  0.00E+00

  Highest occupied state (VBM) at    -25.61026378 eV
  | Occupation number:      2.00000000

  Lowest unoccupied state (CBM) at   -17.43650833 eV
  | Occupation number:      0.50002018

  Overall HOMO-LUMO gap:      8.17375545 eV.

  Total energy components:
  | Sum of eigenvalues            :         -89.79636395 Ha       -2443.48338626 eV
  | XC energy correction          :         -16.45369099 Ha        -447.72771200 eV
  | XC potential correction       :          21.14564125 Ha         575.40217469 eV
  | Free-atom electrostatic energy:         -71.50995483 Ha       -1945.88487651 eV
  | Hartree energy correction     :           6.82128751 Ha         185.61667723 eV
  | Entropy correction            :          -0.00016515 Ha          -0.00449404 eV
  | ---------------------------
  | Total energy                  :        -149.79308101 Ha       -4076.07712284 eV
  | Total energy, T -> 0          :        -149.79324616 Ha       -4076.08161688 eV  <-- do not rely on this value for anything but (periodic) metals
  | Electronic free energy        :        -149.79341132 Ha       -4076.08611092 eV

  Derived energy quantities:
  | Kinetic energy                :         149.45656919 Ha        4066.92017025 eV
  | Electrostatic energy          :        -282.79595921 Ha       -7695.26958109 eV
  | Energy correction for multipole
  | error in Hartree potential    :          -0.00054343 Ha          -0.01478746 eV
  | Sum of eigenvalues per atom                           :       -1221.74169313 eV
  | Total energy (T->0) per atom                          :       -2038.04080844 eV  <-- do not rely on this value for anything but (periodic) metals
  | Electronic free energy per atom                       :       -2038.04305546 eV

  Self-consistency convergence accuracy:
  | Change of charge density      :  0.2676E-03
  | Change of sum of eigenvalues  :  0.2356E-01 eV
  | Change of total energy        :  0.8850E-07 eV

  End self-consistency iteration #    11       :  max(cpu_time)    wall_clock(cpu1)
  | Time for this iteration                    :        0.105 s           0.105 s
  | Charge density update                      :        0.030 s           0.029 s
  | Density mixing                             :        0.003 s           0.003 s
  | Hartree multipole update                   :        0.004 s           0.004 s
  | Hartree multipole summation                :        0.025 s           0.025 s
  | Integration                                :        0.042 s           0.042 s
  | Solution of K.-S. eqns.                    :        0.001 s           0.001 s
  | Total energy evaluation                    :        0.000 s           0.001 s
------------------------------------------------------------

------------------------------------------------------------
          Begin self-consistency iteration #   12

  Date     :  20190722, Time     :  144409.306
------------------------------------------------------------
  Evaluating new KS density.
  Integration grid: deviation in total charge (<rho> - N_e) =  -9.769963E-14
  Pulay mixing of updated and previous charge densities.

  Evaluating partitioned Hartree potential by multipole expansion.
  | Analytical far-field extrapolation by fixed multipoles:
  | Hartree multipole sum: apparent total charge =   0.999994E+00
  Summing up the Hartree potential.
  Time summed over all CPUs for potential: real work        0.104 s, elapsed        0.105 s
  | RMS charge density error from multipole expansion :   0.495332E-03

  Integrating Hamiltonian matrix: batch-based integration.
  Time summed over all CPUs for integration: real work        0.171 s, elapsed        0.173 s

  Updating Kohn-Sham eigenvalues, eigenvectors, occupation numbers, and Fermi level.
  Solving generalized eigenproblem
  Updating Kohn-Sham eigenvalues and eigenfunctions.
  Solving real generalised eigenvalue problem by standard LAPACK (fast)
  Determining occupation numbers for Kohn-Sham eigenstates.
  | Chemical potential (Fermi level) in eV                 : -.17441269E+02
  | Error in electron count due to remaining E_F inaccuracy: 0.30198066E-13
  | Maximum occupation number of highest empty state:  0.00E+00

  Highest occupied state (VBM) at    -25.61025544 eV
  | Occupation number:      2.00000000

  Lowest unoccupied state (CBM) at   -17.43649944 eV
  | Occupation number:      0.50002194

  Overall HOMO-LUMO gap:      8.17375600 eV.

  Total energy components:
  | Sum of eigenvalues            :         -89.79635814 Ha       -2443.48322805 eV
  | XC energy correction          :         -16.45369205 Ha        -447.72774074 eV
  | XC potential correction       :          21.14564266 Ha         575.40221298 eV
  | Free-atom electrostatic energy:         -71.50995483 Ha       -1945.88487651 eV
  | Hartree energy correction     :           6.82128135 Ha         185.61650948 eV
  | Entropy correction            :          -0.00016515 Ha          -0.00449404 eV
  | ---------------------------
  | Total energy                  :        -149.79308101 Ha       -4076.07712284 eV
  | Total energy, T -> 0          :        -149.79324616 Ha       -4076.08161688 eV  <-- do not rely on this value for anything but (periodic) metals
[...]
  | Total energy (T->0) per atom                          :       -2038.04080844 eV  <-- do not rely on this value for anything but (periodic) metals
  | Electronic free energy per atom                       :       -2038.04305546 eV

  Self-consistency convergence accuracy:
  | Change of charge density      :  0.7013E-05
  | Change of sum of eigenvalues  :  0.1582E-03 eV
  | Change of total energy        : -0.2297E-09 eV

  Electronic self-consistency reached - switching on the force computation.

  End self-consistency iteration #    12       :  max(cpu_time)    wall_clock(cpu1)
  | Time for this iteration                    :        0.115 s           0.116 s
  | Charge density & force component update    :        0.030 s           0.029 s
  | Density mixing                             :        0.003 s           0.003 s
  | Hartree multipole update                   :        0.004 s           0.004 s
  | Hartree multipole summation                :        0.028 s           0.028 s
  | Integration                                :        0.044 s           0.044 s
  | Solution of K.-S. eqns.                    :        0.005 s           0.005 s
  | Total energy evaluation                    :        0.001 s           0.002 s
------------------------------------------------------------

------------------------------------------------------------
          Begin self-consistency iteration #   13

  Date     :  20190722, Time     :  144409.425
------------------------------------------------------------
  Evaluating new KS density.
  Integration grid: deviation in total charge (<rho> - N_e) =   2.486900E-14
  Pulay mixing of updated and previous charge densities.

  Evaluating partitioned Hartree potential by multipole expansion.
  | Analytical far-field extrapolation by fixed multipoles:
  | Hartree multipole sum: apparent total charge =   0.999999E+00
  Summing up the Hartree potential.
  Time summed over all CPUs for potential: real work        0.255 s, elapsed        0.261 s
  | RMS charge density error from multipole expansion :   0.495332E-03

  Integrating Hamiltonian matrix: batch-based integration.
  Time summed over all CPUs for integration: real work        0.165 s, elapsed        0.167 s

  Updating Kohn-Sham eigenvalues, eigenvectors, occupation numbers, and Fermi level.
  Solving generalized eigenproblem
  Updating Kohn-Sham eigenvalues and eigenfunctions.
  Solving real generalised eigenvalue problem by standard LAPACK (fast)
  Determining occupation numbers for Kohn-Sham eigenstates.
  | Chemical potential (Fermi level) in eV                 : -.17441307E+02
  | Error in electron count due to remaining E_F inaccuracy: -.88817842E-14
  | Maximum occupation number of highest empty state:  0.00E+00

  Highest occupied state (VBM) at    -25.61029497 eV
  | Occupation number:      2.00000000

  Lowest unoccupied state (CBM) at   -17.43653745 eV
  | Occupation number:      0.50000015

  Overall HOMO-LUMO gap:      8.17375752 eV.

  Total energy components:
  | Sum of eigenvalues            :         -89.79637925 Ha       -2443.48380243 eV
  | XC energy correction          :         -16.45369161 Ha        -447.72772883 eV
  | XC potential correction       :          21.14564212 Ha         575.40219819 eV
  | Free-atom electrostatic energy:         -71.50995483 Ha       -1945.88487651 eV
  | Hartree energy correction     :           6.82130256 Ha         185.61708673 eV
  | Entropy correction            :          -0.00016515 Ha          -0.00449404 eV
  | ---------------------------
  | Total energy                  :        -149.79308101 Ha       -4076.07712284 eV
  | Total energy, T -> 0          :        -149.79324616 Ha       -4076.08161688 eV  <-- do not rely on this value for anything but (periodic) metals
  | Electronic free energy        :        -149.79341132 Ha       -4076.08611092 eV

  Derived energy quantities:
  | Kinetic energy                :         149.45658009 Ha        4066.92046695 eV
  | Electrostatic energy          :        -282.79596949 Ha       -7695.26986097 eV
  | Energy correction for multipole
  | error in Hartree potential    :          -0.00054343 Ha          -0.01478739 eV
  | Sum of eigenvalues per atom                           :       -1221.74190121 eV
  | Total energy (T->0) per atom                          :       -2038.04080844 eV  <-- do not rely on this value for anything but (periodic) metals
  | Electronic free energy per atom                       :       -2038.04305546 eV

  atomic forces [eV/Ang]:
  -----------------------
  atom #    1
   Hellmann-Feynman              : -0.347305E-01 -0.277172E-10 -0.155921E+02
   Ionic forces                  :  0.000000E+00  0.000000E+00  0.000000E+00
   Multipole                     : -0.133110E-03 -0.362750E-13 -0.593844E-01
   Pulay + GGA                   :  0.000000E+00  0.000000E+00  0.000000E+00
   ----------------------------------------------------------------
   Total forces(   1)            : -0.348636E-01 -0.277535E-10 -0.156515E+02
  atom #    2
   Hellmann-Feynman              :  0.347305E-01  0.266956E-10  0.155921E+02
   Ionic forces                  :  0.000000E+00  0.000000E+00  0.000000E+00
   Multipole                     :  0.133110E-03 -0.307193E-14  0.593844E-01
   Pulay + GGA                   :  0.000000E+00  0.000000E+00  0.000000E+00
   ----------------------------------------------------------------
   Total forces(   2)            :  0.348636E-01  0.266925E-10  0.156515E+02


  Self-consistency convergence accuracy:
  | Change of charge density      :  0.7553E-05
  | Change of sum of eigenvalues  : -0.5744E-03 eV
  | Change of total energy        :  0.3759E-09 eV
  | Change of forces              :  0.1565E+02 eV/A

  End self-consistency iteration #    13       :  max(cpu_time)    wall_clock(cpu1)
  | Time for this iteration                    :        0.149 s           0.148 s
  | Charge density & force component update    :        0.031 s           0.030 s
  | Density mixing                             :        0.003 s           0.004 s
  | Hartree multipole update                   :        0.004 s           0.004 s
  | Hartree multipole summation                :        0.066 s           0.065 s
  | Integration                                :        0.042 s           0.043 s
  | Solution of K.-S. eqns.                    :        0.001 s           0.001 s
  | Total energy evaluation                    :        0.001 s           0.001 s
------------------------------------------------------------

------------------------------------------------------------
          Begin self-consistency iteration #   14

  Date     :  20190722, Time     :  144409.575
------------------------------------------------------------
  Evaluating new KS density and force components.
  Integration grid: deviation in total charge (<rho> - N_e) =  -6.394885E-14
  Pulay mixing of updated and previous charge densities.

  Evaluating partitioned Hartree potential by multipole expansion.
  | Analytical far-field extrapolation by fixed multipoles:
  | Hartree multipole sum: apparent total charge =   0.999999E+00
  Summing up the Hartree potential.
  Time summed over all CPUs for potential: real work        0.255 s, elapsed        0.262 s
  | RMS charge density error from multipole expansion :   0.495332E-03

  Integrating Hamiltonian matrix: batch-based integration.
  Time summed over all CPUs for integration: real work        0.167 s, elapsed        0.169 s

  Updating Kohn-Sham eigenvalues, eigenvectors, occupation numbers, and Fermi level.
  Solving generalized eigenproblem
  Updating Kohn-Sham eigenvalues and eigenfunctions.
  Solving real generalised eigenvalue problem by standard LAPACK (fast)
  Determining occupation numbers for Kohn-Sham eigenstates.
  | Chemical potential (Fermi level) in eV                 : -.17441307E+02
  | Error in electron count due to remaining E_F inaccuracy: 0.25046631E-12
  | Maximum occupation number of highest empty state:  0.00E+00

  Highest occupied state (VBM) at    -25.61029519 eV
  | Occupation number:      2.00000000

  Lowest unoccupied state (CBM) at   -17.43653768 eV
  | Occupation number:      0.50000011

  Overall HOMO-LUMO gap:      8.17375752 eV.

  Total energy components:
  | Sum of eigenvalues            :         -89.79637936 Ha       -2443.48380560 eV
  | XC energy correction          :         -16.45369161 Ha        -447.72772880 eV
  | XC potential correction       :          21.14564212 Ha         575.40219817 eV
  | Free-atom electrostatic energy:         -71.50995483 Ha       -1945.88487651 eV
  | Hartree energy correction     :           6.82130268 Ha         185.61708990 eV
  | Entropy correction            :          -0.00016515 Ha          -0.00449404 eV
  | ---------------------------
  | Total energy                  :        -149.79308101 Ha       -4076.07712284 eV
  | Total energy, T -> 0          :        -149.79324616 Ha       -4076.08161688 eV  <-- do not rely on this value for anything but (periodic) metals
  | Electronic free energy        :        -149.79341132 Ha       -4076.08611092 eV

  Derived energy quantities:
  | Kinetic energy                :         149.45658010 Ha        4066.92046704 eV
  | Electrostatic energy          :        -282.79596950 Ha       -7695.26986108 eV
  | Energy correction for multipole
  | error in Hartree potential    :          -0.00054343 Ha          -0.01478739 eV
  | Sum of eigenvalues per atom                           :       -1221.74190280 eV
  | Total energy (T->0) per atom                          :       -2038.04080844 eV  <-- do not rely on this value for anything but (periodic) metals
  | Electronic free energy per atom                       :       -2038.04305546 eV

  atomic forces [eV/Ang]:
  -----------------------
  atom #    1
   Hellmann-Feynman              : -0.347305E-01 -0.196762E-10 -0.155921E+02
   Ionic forces                  :  0.000000E+00  0.000000E+00  0.000000E+00
   Multipole                     : -0.133110E-03 -0.168057E-13 -0.593844E-01
   Pulay + GGA                   :  0.348634E-01  0.967960E-11  0.156517E+02
   ----------------------------------------------------------------
   Total forces(   1)            : -0.224617E-06 -0.100134E-10  0.261077E-03
  atom #    2
   Hellmann-Feynman              :  0.347305E-01  0.190648E-10  0.155921E+02
   Ionic forces                  :  0.000000E+00  0.000000E+00  0.000000E+00
   Multipole                     :  0.133110E-03 -0.585395E-16  0.593844E-01
   Pulay + GGA                   : -0.348634E-01 -0.892316E-11 -0.156517E+02
   ----------------------------------------------------------------
   Total forces(   2)            :  0.224608E-06  0.101416E-10 -0.261077E-03


  Self-consistency convergence accuracy:
  | Change of charge density      :  0.6151E-07
  | Change of sum of eigenvalues  : -0.3172E-05 eV
  | Change of total energy        : -0.3094E-11 eV
  | Change of forces              :  0.3234E-05 eV/A

  Writing Kohn-Sham eigenvalues.

  State    Occupation    Eigenvalue [Ha]    Eigenvalue [eV]
      1       2.00000         -19.412611         -528.24402
      2       2.00000         -19.412392         -528.23807
      3       2.00000          -1.743891          -47.45369
      4       2.00000          -1.151970          -31.34670
      5       2.00000          -0.957887          -26.06543
      6       2.00000          -0.957887          -26.06543
      7       2.00000          -0.941161          -25.61030
      8       0.50000          -0.640781          -17.43654
      9       0.50000          -0.640781          -17.43654
     10       0.00000          -0.181164           -4.92973
     11       0.00000          -0.160859           -4.37719
     12       0.00000          -0.115282           -3.13697
     13       0.00000          -0.115282           -3.13697
     14       0.00000          -0.061531           -1.67435

  Highest occupied state (VBM) at    -25.61029519 eV
  | Occupation number:      2.00000000

  Lowest unoccupied state (CBM) at   -17.43653768 eV
  | Occupation number:      0.50000011

  Overall HOMO-LUMO gap:      8.17375752 eV.

  Self-consistency cycle converged.

  End self-consistency iteration #    14       :  max(cpu_time)    wall_clock(cpu1)
  | Time for this iteration                    :        0.219 s           0.219 s
  | Charge density & force component update    :        0.100 s           0.099 s
  | Density mixing                             :        0.003 s           0.003 s
  | Hartree multipole update                   :        0.004 s           0.004 s
  | Hartree multipole summation                :        0.066 s           0.066 s
  | Integration                                :        0.043 s           0.042 s
  | Solution of K.-S. eqns.                    :        0.002 s           0.002 s
  | Total energy evaluation                    :        0.001 s           0.001 s
------------------------------------------------------------
  Writing cluster restart information to file restart
  ------------------------------------------------------------
   Computing monopole / dipole moments for complete molecule:
  | Total electronic charge [e]         :          0.150000000852328E+02
  | Total ionic charge [e]              :          0.160000000000000E+02
  | Total charge [e]                    :          0.999999914767169E+00
 * Warning: The system has a total charge of      0.99999991 .
 * The dipole moment depends on the choice of the origin.
  | Total dipole moment [eAng]          :         -0.124999989345885E-02         0.998758028503133E-15         0.603749948540721E+00
  | Absolute dipole moment              :          0.603751242535083E+00 eAng              /                   0.289948885466516E+01 Debye  .
  Removing unitary transformations (pure translations, rotations) from forces on atoms.
  Atomic forces before filtering:
  | Net force on center of mass :  -0.861449E-11  0.128194E-12  0.288176E-10 eV/A
  | Net torque on center of mass:  -0.113148E-10  0.904884E-06  0.251937E-13 eV
  Atomic forces after filtering:
  | Net force on center of mass :   0.000000E+00  0.202824E-28  0.000000E+00 eV/A
  | Net torque on center of mass:  -0.291491E-26  0.270105E-21  0.649038E-29 eV

  Energy and forces in a compact form:
  | Total energy uncorrected      :         -0.407607712284122E+04 eV
  | Total energy corrected        :         -0.407608161688051E+04 eV  <-- do not rely on this value for anything but (periodic) metals
  | Electronic free energy        :         -0.407608611091980E+04 eV
  Total atomic forces (unitary forces cleaned) [eV/Ang]:
  |   1          0.581314200658562E-06         -0.258600958046346E-26          0.261075555327257E-03
  |   2         -0.581314200658562E-06          0.260629200854552E-26         -0.261075555327257E-03

  ------------------------------------ 
  Start decomposition of the XC Energy 
  ------------------------------------ 
  Hartree-Fock part   :          0.000000000 Ha              0.000000000 eV
  ------------------------------------ 
  X Energy            :        -15.950250844 Ha           -434.028408596 eV
  C Energy GGA        :         -0.503440764 Ha            -13.699320201 eV
  Total XC Energy     :        -16.453691608 Ha           -447.727728798 eV
  LDA X and C from self-consistent density 
  X Energy LDA        :        -14.465847492 Ha           -393.635738222 eV
  C Energy LDA        :         -1.061660391 Ha            -28.889249121 eV
  ------------------------------------ 
  End decomposition of the XC Energy 
  ------------------------------------ 

------------------------------------------------------------------------------
  Final output of selected total energy values:

  The following output summarizes some interesting total energy values
  at the end of a run (AFTER all relaxation, molecular dynamics, etc.).

  | Total energy of the DFT / Hartree-Fock s.c.f. calculation      :          -4076.077122841 eV
  | Final zero-broadening corrected energy (caution - metals only) :          -4076.081616881 eV
  | For reference only, the value of 1 Hartree used in FHI-aims is :             27.211384500 eV

  Before relying on these values, please be sure to understand exactly which
  total energy value is referred to by a given number. Different objects may
  all carry the same name 'total energy'. Definitions:

  Total energy of the DFT / Hartree-Fock s.c.f. calculation:
  | Note that this energy does not include ANY quantities calculated after the
  | s.c.f. cycle, in particular not ANY RPA, MP2, etc. many-body perturbation terms.

  Final zero-broadening corrected energy:
  | For metallic systems only, a broadening of the occupation numbers at the Fermi
  | level can be extrapolated back to zero broadening by an electron-gas inspired
  | formula. For all systems that are not real metals, this value can be
  | meaningless and should be avoided.

------------------------------------------------------------------------------
  Methods described in the following list of references were used in this FHI-aims run.
  If you publish the results, please make sure to cite these reference if they apply.
  FHI-aims is an academic code, and for our developers (often, Ph.D. students
  and postdocs), scientific credit in the community is essential.
  Thank you for helping us!

  For any use of FHI-aims, please cite:

    Volker Blum, Ralf Gehrke, Felix Hanke, Paula Havu, Ville Havu,
    Xinguo Ren, Karsten Reuter, and Matthias Scheffler
    'Ab initio molecular simulations with numeric atom-centered orbitals'
    Computer Physics Communications 180, 2175-2196 (2009)
    http://dx.doi.org/10.1016/j.cpc.2009.06.022


  For the real-space grid partitioning and parallelization used in this calculation, please cite:

    Ville Havu, Volker Blum, Paula Havu, and Matthias Scheffler,
    'Efficient O(N) integration for all-electron electronic structure calculation'
    'using numerically tabulated basis functions'
    Journal of Computational Physics 228, 8367-8379 (2009).
    http://dx.doi.org/10.1016/j.jcp.2009.08.008

  Of course, there are many other important community references, e.g., those cited in the
  above references. Our list is limited to references that describe implementations in the
  FHI-aims code. The reason is purely practical (length of this list) - please credit others as well.

------------------------------------------------------------
          Leaving FHI-aims.
          Date     :  20190722, Time     :  144409.834

          Computational steps:
          | Number of self-consistency cycles          :           14

          Detailed time accounting                     :  max(cpu_time)    wall_clock(cpu1)
          | Total time                                 :        2.094 s           2.197 s
          | Preparation time                           :        0.145 s           0.169 s
          | Grid partitioning                          :        0.022 s           0.024 s
          | Preloading free-atom quantities on grid    :        0.016 s           0.018 s
          | Free-atom superposition energy             :        0.010 s           0.009 s
          | Total time for integrations                :        0.699 s           0.700 s
          | Total time for solution of K.-S. equations :        0.040 s           0.048 s
          | Total time for density & force components  :        0.524 s           0.519 s
          | Total time for mixing                      :        0.039 s           0.041 s
          | Total time for Hartree multipole update    :        0.064 s           0.059 s
          | Total time for Hartree multipole sum       :        0.463 s           0.462 s
          | Total time for total energy evaluation     :        0.008 s           0.016 s

          Have a nice day.
------------------------------------------------------------
