  MPI-parallelism will be employed.
------------------------------------------------------------
          Invoking FHI-aims ...
          Version 160328_3
          Compiled on 2019/06/10 at 14:55:49 on host taito-login3.csc.fi.

          When using FHI-aims, please cite the following reference:

          Volker Blum, Ralf Gehrke, Felix Hanke, Paula Havu,
          Ville Havu, Xinguo Ren, Karsten Reuter, and Matthias Scheffler,
          'Ab Initio Molecular Simulations with Numeric Atom-Centered Orbitals',
          Computer Physics Communications 180, 2175-2196 (2009)

          For any questions about FHI-aims, please visit the aimsclub website
          with its forums and wiki. Contributions to both the forums and the
          wiki are warmly encouraged - they are for you, and everyone is welcome there.

------------------------------------------------------------

  Date     :  20190722, Time     :  142430.325
  Time zero on CPU 1             :   0.854869000000000E+00  s.
  Internal wall clock time zero  :           333037470.325  s.

  Using        4 parallel tasks.
  Task        0 on host c627 reporting.
  Task        1 on host c627 reporting.
  Task        2 on host c627 reporting.
  Task        3 on host c627 reporting.

  Performing system and environment tests:
  | Environment variable OMP_NUM_THREADS correctly set to 1.
  | Maximum stacksize for task 0: unlimited
  | Maximum stacksize for task 1: unlimited
  | Maximum stacksize for task 2: unlimited
  | Maximum stacksize for task 3: unlimited
  | Current stacksize for task 0: 1024 [Mb]
  | Current stacksize for task 1: 1024 [Mb]
  | Current stacksize for task 2: 1024 [Mb]
  | Current stacksize for task 3: 1024 [Mb]
  | Checking for scalapack...
  | No scalapack compiled in.

  Obtaining array dimensions for all initial allocations:
  
  -----------------------------------------------------------------------
  Parsing control.in (first pass over file, find array dimensions only).
  The contents of control.in will be repeated verbatim below
  unless switched off by setting 'verbatim_writeout .false.' .
  in the first line of control.in .
  -----------------------------------------------------------------------
  
    #  Physical model settings
    #
  
    xc                            pbe
    charge                        1.0
    relativistic                  none
  #  default_initial_moment        0.0
    spin                          none
  #  vdw_correction_hirshfeld
  
    #  SCF convergence settings
    #
  
    sc_accuracy_rho               1E-4
    sc_accuracy_eev               1E-2
    sc_accuracy_etot              1E-8
    sc_iter_limit                 100
  
    #  Occupation settings
    #
  
    restart                       restart
    force_occupation_projector      7 1 1.5 6 7 #ion 2
    force_occupation_projector      6 1 1.5 6 7 #ion 2
  
    #  Relaxation
    #
  
    relax_geometry                bfgs    1.e-4
  
  
  ################################################################################
  #
  #  FHI-aims code project
  #  VB, Fritz-Haber Institut, 2007
  #
  #  Suggested "safe" defaults for O atom (to be pasted into control.in file)
  #
  ################################################################################
    species        O
  #     global species definitions
      nucleus             8
      mass                15.9994
  #
      l_hartree           8
  #
      cut_pot             4.0  2.0  1.0
      basis_dep_cutoff    0.d0
  #
      radial_base         36 7.0
      radial_multiplier   2
       angular_grids specified
        division   0.4087  110
        division   0.5181  194
        division   0.6184  302
        division   0.7315  434
        division   0.7934  590
  #      division   0.9656  770
  #      division   1.4041  974
  #      outer_grid 974
        outer_grid 590
  ################################################################################
  #
  #  Definition of "minimal" basis
  #
  ################################################################################
  #     valence basis states
      valence      2  s   2.
      valence      2  p   4.
  #     ion occupancy
      ion_occ      2  s   1.
      ion_occ      2  p   3.
  ################################################################################
  #
  #  Suggested additional basis functions. For production calculations,
  #  uncomment them one after another (the most important basis functions are
  #  listed first).
  #
  #  Constructed for dimers: 1.0 A, 1.208 A, 1.5 A, 2.0 A, 3.0 A
  #
  ################################################################################
  #  "First tier" - improvements: -699.05 meV to -159.38 meV
       hydro 2 p 1.8
       hydro 3 d 7.6
       hydro 3 s 6.4
  #  "Second tier" - improvements: -49.91 meV to -5.39 meV
       hydro 4 f 11.6
       hydro 3 p 6.2
       hydro 3 d 5.6
       hydro 5 g 17.6
       hydro 1 s 0.75
  #  "Third tier" - improvements: -2.83 meV to -0.50 meV
  #     ionic 2 p auto
  #     hydro 4 f 10.8
  #     hydro 4 d 4.7
  #     hydro 2 s 6.8
  #  "Fourth tier" - improvements: -0.40 meV to -0.12 meV
  #     hydro 3 p 5
  #     hydro 3 s 3.3
  #     hydro 5 g 15.6
  #     hydro 4 f 17.6
  #     hydro 4 d 14
  # Further basis functions - -0.08 meV and below
  #     hydro 3 s 2.1
  #     hydro 4 d 11.6
  #     hydro 3 p 16
  #     hydro 2 s 17.2
  
  -----------------------------------------------------------------------
  Completed first pass over input file control.in .
  -----------------------------------------------------------------------
  
  
  -----------------------------------------------------------------------
  Parsing geometry.in (first pass over file, find array dimensions only).
  The contents of geometry.in will be repeated verbatim below
  unless switched off by setting 'verbatim_writeout .false.' .
  in the first line of geometry.in .
  -----------------------------------------------------------------------
  
  atom 0.0 0.0 0.0 O
  atom 0.0 0.0 1.2075 O
  
  -----------------------------------------------------------------------
  Completed first pass over input file geometry.in .
  -----------------------------------------------------------------------
  

  Basic array size parameters:
  | Number of species                 :        1
  | Number of atoms                   :        2
  | Max. basis fn. angular momentum   :        4
  | Max. atomic/ionic basis occupied n:        2
  | Max. number of basis fn. types    :        2
  | Max. radial fns per species/type  :        8
  | Max. logarithmic grid size        :     1301
  | Max. radial integration grid size :       73
  | Max. angular integration grid size:      590
  | Max. angular grid division number :        8
  | Radial grid for Hartree potential :     1301
  | Number of spin channels           :        1

------------------------------------------------------------
          Reading file control.in.
------------------------------------------------------------
  XC: Using PBE gradient-corrected functionals.
  Charged system requested: Charge =   0.100000E+01.
  Non-relativistic treatment of kinetic energy.
  Spin treatment: No spin polarisation.
  Convergence accuracy of self-consistent charge density:  0.1000E-03
  Convergence accuracy of sum of eigenvalues:  0.1000E-01
  Convergence accuracy of total energy:  0.1000E-07
  Maximum number of s.-c. iterations  :   100
  Restart file specified as : restart
  | Reading information from existing file.
  Occupation forced using projector   1        7   1.50000000
  Occupation forced using projector   1        6   1.50000000
  Geometry relaxation: Modified BFGS - TRM (trust radius method, i.e., trusted quadratic extrapolation).
  Convergence accuracy for geometry relaxation: Maximum force <   0.100000E-03 eV/A.
 
  Reading configuration options for species O                   .
  | Found nuclear charge :   8.0000
  | Found atomic mass :    15.9994000000000      amu
  | Found l_max for Hartree potential  :   8
  | Found cutoff potl. onset [A], width [A], scale factor :    4.00000    2.00000    1.00000
  | Threshold for basis-dependent cutoff potential is   0.000000E+00
  | Found data for basic radial integration grid :    36 points, outermost radius =    7.000 A
  | Found multiplier for basic radial grid :   2
  | Found angular grid specification: user-specified.
  | Specified grid contains     6 separate shells.
  | Check grid settings after all constraints further below.
  | Found free-atom valence shell :  2 s   2.000
  | Found free-atom valence shell :  2 p   4.000
  | No ionic wave fns used. Skipping ion_occ.
  | No ionic wave fns used. Skipping ion_occ.
  | Found hydrogenic basis function :  2 p   1.800
  | Found hydrogenic basis function :  3 d   7.600
  | Found hydrogenic basis function :  3 s   6.400
  | Found hydrogenic basis function :  4 f  11.600
  | Found hydrogenic basis function :  3 p   6.200
  | Found hydrogenic basis function :  3 d   5.600
  | Found hydrogenic basis function :  5 g  17.600
  | Found hydrogenic basis function :  1 s   0.750
  Species O                   : Missing cutoff potential type.
  Defaulting to exp(1/x)/(1-x)^2 type cutoff potential.
  Species O : No 'logarithmic' tag. Using default grid for free atom:
  | Default logarithmic grid data [bohr] : 0.1000E-03 0.1000E+03 0.1012E+01
  Species O : On-site basis accuracy parameter (for Gram-Schmidt orthonormalisation) not specified.
  Using default value basis_acc =  0.1000000E-03.
  Species O                   : Using default innermost maximum threshold i_radial=  2 for radial functions.
  Species O                   : Default cutoff onset for free atom density etc. : 0.40000000E+01 AA.
  Species O                   : Basic radial grid will be enhanced according to radial_multiplier =   2, to contain    73 grid points.
 
  Finished reading input file 'control.in'. Consistency checks are next.
 
  Target number of points in a grid batch is not set. Defaulting to  100
  Method for grid partitioning is not set. Defaulting to parallel hash+maxmin partitioning.
  Batch size limit is not set. Defaulting to    200
  By default, will store active basis functions for each batch.
  If in need of memory, prune_basis_once .false. can be used to disable this option.
  communication_type for Hartree potential was not specified.
  Defaulting to calc_hartree .
  Defaulting to Pulay charge density mixer.
  Pulay mixer: Number of relevant iterations not set.
  Defaulting to    8 iterations.
  Pulay mixer: Number of initial linear mixing iterations not set.
  Defaulting to    0 iterations.
  Work space size for distributed Hartree potential not set.
  Defaulting to   0.200000E+03 MB.
  Mixing parameter for charge density mixing has not been set.
  Using default: charge_mix_param =     0.2000.
  Algorithm-dependent basis array size parameters:
  | n_max_pulay                         :        8
  No maximum number of relaxation steps, defaulting to     1000
  Default initial Hessian is Lindh matrix (thres = 15.00) plus  0.200000E+01 eV/A^2 times unity.
  No maximum energy tolerance for TRM/BFGS moves, defaulting to   0.200000E-03
  No harmonic length scale. Defaulting to   0.250000E-01 A.
  No trust radius initializer. Defaulting to   0.200000E+00 A.
  Force calculation: scf convergence accuracy of forces not set.
  Required force accuracy for relaxation overrides required scf force convergence accuracy.
  Defaulting to  0.2000E-04 eV/A.
  Handling of forces: Unphysical translation and rotation will be removed from forces.
  No accuracy limit for integral partition fn. given. Defaulting to  0.1000E-14.
  No threshold value for u(r) in integrations given. Defaulting to  0.1000E-05.
  No occupation type (smearing scheme) given. Defaulting to Gaussian broadening, width =  0.1000E-01 eV.
  No accuracy for occupation numbers given. Defaulting to  0.1000E-07.
  No threshold value for occupation numbers given. Defaulting to  0.0000E+00.
  No accuracy for fermi level given. Defaulting to  0.1000E-19.
  Maximum # of iterations to find E_F not set. Defaulting to  200.
  Preferred method for the eigenvalue solver ('KS_method') not specified in 'control.in'.
  Calling blacs routine to test compilation state
  The best choice would be 'elpa', but your version of FHI-aims is compiled without scalapack support.
  Defaulting to 'lapack_fast' instead (serial solution, time will not improve with more CPUs).
  Will not use alltoall communication since running on < 1024 CPUs.
  Threshold for basis singularities not set.
  Default threshold for basis singularities:  0.1000E-04
  partition_type (choice of integration weights) for integrals was not specified.
  | Using a version of the partition function of Stratmann and coworkers ('stratmann_smoother').
  | At each grid point, the set of atoms used to build the partition table is smoothly restricted to
  | only those atoms whose free-atom density would be non-zero at that grid point.
  Partitioning for Hartree potential was not defined. Using partition_type for integrals.
  | Adjusted default value of keyword multip_moments_threshold to:       0.10000000E-11
  | This value may affect high angular momentum components of the Hartree potential in periodic systems.
  No q(lm)/r^(l+1) cutoff set for long-range Hartree potential.
  | Using default value of  0.100000E-09 .
  | Verify using the multipole_threshold keyword.
  Defaulting to new monopole extrapolation.
  Density update method: automatic selection selected.
  Geometry relaxation: A file "geometry.in.next_step" is written out by default after each step.
  | This file contains the geometry of the current relaxation step as well as
  | the current Hessian matrix needed to restart the relaxation algorithm.
  | If you do not want part or all of this information, use the keywords
  | "write_restart_geometry" or "hessian_to_restart_geometry" to switch the output off.
------------------------------------------------------------


------------------------------------------------------------
          Reading geometry description geometry.in.
------------------------------------------------------------
 * Warning: Initial charge and total charge of the system are inconsistent.
 * Selected charge in control.in:     1.0000* Sum of initial charges in geometry.in:     0.0000
  Input structure read successfully.
  The structure contains        2 atoms,  and a total of         15.000 electrons.

  Input geometry:
  | No unit cell requested.
  | Atomic structure:
  |       Atom                x [A]            y [A]            z [A]
  |    1: Species O              0.000000         0.000000         0.000000
  |    2: Species O              0.000000         0.000000         1.207500
  |

  | The smallest distance between any two atoms is         1.20750000 AA.
  |
  | The first atom of this pair is atom number                      1 .
  | The second atom of this pair is atom number                     2 .

  Number of empty states per atom not set in control.in - providing a guess from actual geometry.
  | Total number of empty states used during s.c.f. cycle:        6
  If you use a very high smearing, use empty_states (per atom!) in control.in to increase this value.

  Structure-dependent array size parameters: 
  | Maximum number of distinct radial functions  :       11
  | Maximum number of basis functions            :       78
  | Number of Kohn-Sham states (occupied + empty):       14
------------------------------------------------------------

------------------------------------------------------------
          Preparing all fixed parts of the calculation.
------------------------------------------------------------
  Determining machine precision:
    2.225073858507201E-308
  Setting up grids for atomic and cluster calculations.

  Creating wave function, potential, and density for free atoms.

  Species: O

  List of occupied orbitals and eigenvalues:
    n    l              occ      energy [Ha]    energy [eV]
    1    0           2.0000       -18.898576      -514.2564
    2    0           2.0000        -0.878795       -23.9132
    2    1           4.0000        -0.332075        -9.0362

  Creating fixed part of basis set: Ionic, confined, hydrogenic.
 
  O                    hydrogenic:
 
  List of hydrogenic basis orbitals: 
    n    l      effective z      eigenvalue [eV]  inner max. [A]     outer max. [A]     outer radius [A]   
    2    1         1.800000       -11.0118           1.178562           1.178562           5.432602
    3    2         7.600000       -87.3183           0.624125           0.624125           4.634338
    3    0         6.400000       -61.9210           0.061167           1.081902           5.110480
    4    3        11.600000      -114.4239           0.731631           0.731631           4.522403
    3    1         6.200000       -58.1114           0.255680           1.030270           5.110480
    3    2         5.600000       -47.4083           0.847233           0.847233           5.173339
    5    4        17.600000      -168.5800           0.749740           0.749740           4.051222
    1    0         0.750000        -7.6499           0.705284           0.705284           5.366593
 

  Adding cutoff potential to free-atom effective potential.
  Creating atomic-like basis functions for current effective potential.

  Species O                   :

  List of atomic basis orbitals and eigenvalues:
    n    l      energy [Ha]    energy [eV]    outer radius [A]
    1    0       -18.898576      -514.2564       1.415765
    2    0        -0.878795       -23.9132       5.048385
    2    1        -0.332075        -9.0362       5.301386

  Assembling full basis from fixed parts.
  | Species O :   atomic orbital   1 s accepted.
  | Species O :   atomic orbital   2 s accepted.
  | Species O :    hydro orbital   3 s accepted.
  | Species O :    hydro orbital   1 s accepted.
  | Species O :   atomic orbital   2 p accepted.
  | Species O :    hydro orbital   2 p accepted.
  | Species O :    hydro orbital   3 p accepted.
  | Species O :    hydro orbital   3 d accepted.
  | Species O :    hydro orbital   3 d accepted.
  | Species O :    hydro orbital   4 f accepted.
  | Species O :    hydro orbital   5 g accepted.
 
  Basis size parameters after reduction:
  | Total number of radial functions:       11
  | Total number of basis functions :       78
 
  Testing on-site integration grid accuracy.
  |  Species  Function  <phi|h_atom|phi> (log., in eV)  <phi|h_atom|phi> (rad., in eV)
           1        1               -514.2564144315               -514.2564099626
           1        2                -23.9132357102                -23.9132356433
           1        3                 17.5398579759                 17.5398338425
           1        4                 14.5207278950                 14.5207740449
           1        5                 -9.0362392718                 -9.0362394845
           1        6                  7.9056275927                  7.9056237490
           1        7                 33.4201658992                 33.4201612015
           1        8                 45.8231952720                 45.8231953152
           1        9                 52.1937595491                 52.1937593440
           1       10                 85.4062894308                 85.4062894578
           1       11                142.0975701139                142.0975701391

  Preparing densities etc. for the partition functions (integrals / Hartree potential).

  Preparations completed.
  max(cpu_time)          :      0.168 s.
  Wall clock time (cpu1) :      0.665 s.
------------------------------------------------------------

------------------------------------------------------------
          Begin self-consistency loop: Initialization.

          Date     :  20190722, Time     :  142431.786
------------------------------------------------------------

  Initializing index lists of integration centers etc. from given atomic structure:
  | Number of centers in hartree potential         :         2
  | Number of centers in hartree multipole         :         2
  | Number of centers in electron density summation:         2
  | Number of centers in basis integrals           :         2
  | Number of centers in integrals                 :         2
  | Number of centers in hamiltonian               :         2
  Initializing relaxation algorithms.
  Partitioning the integration grid into batches with parallel hashing+maxmin method.
  | Number of batches:      742
  | Maximal batch size:     112
  | Minimal batch size:      49
  | Average batch size:      71.779
  | Standard deviation of batch sizes:      21.702

  Integration load balanced across     4 MPI tasks.
  Work distribution over tasks is as follows:
  Task     0 has      13280 integration points.
  Task     1 has      13300 integration points.
  Task     2 has      13300 integration points.
  Task     3 has      13380 integration points.
  Initializing partition tables, free-atom densities, potentials, etc. across the integration grid (initialize_grid_storage).
  | initialize_grid_storage: Actual outermost partition radius vs. multipole_radius_free
  | (-- VB: in principle, multipole_radius_free should be larger, hence this output)
  | Species        1: Confinement radius =              6.000000000000000 AA, multipole_radius_free =              6.064445521808699 AA.
  | Species        1: outer_partition_radius set to              6.064445521808699 AA .
  | Original list of interatomic distances with           2 x          2 entries is created.
  | Net number of integration points:    53260
  | of which are non-zero points    :    50204
  Obtaining max. number of non-zero basis functions in each batch (get_n_compute_maxes).
  | Maximal number of non-zero basis functions:       78 in task     0
  | Maximal number of non-zero basis functions:       78 in task     1
  | Maximal number of non-zero basis functions:       78 in task     2
  | Maximal number of non-zero basis functions:       78 in task     3
  Selecting the method for density update.
  Loop over occupied states selected for charge density update.
  Integrating Hamiltonian matrix: batch-based integration.
  Time summed over all CPUs for integration: real work        0.525 s, elapsed        0.530 s
  Integrating overlap matrix.
  Time summed over all CPUs for integration: real work        0.095 s, elapsed        0.096 s

  Reading cluster restart information from file restart
  Writing Kohn-Sham eigenvalues.

  State    Occupation    Eigenvalue [Ha]    Eigenvalue [eV]
      1       2.00000         -19.383713         -527.45766
      2       2.00000         -19.383633         -527.45550
      3       2.00000          -1.670862          -45.46646
      4       2.00000          -1.166605          -31.74493
      5       2.00000          -0.927595          -25.24116
      6       0.50000          -0.922028          -25.08966
      7       2.00000          -0.905613          -24.64300
      8       2.00000          -0.664590          -18.08442
      9       0.50000          -0.647823          -17.62817
     10       0.00000          -0.291150           -7.92258
     11       0.00000          -0.159136           -4.33030
     12       0.00000          -0.113440           -3.08686
     13       0.00000           0.000000            0.00000
     14       0.00000           0.000000            0.00000

  Highest occupied state (VBM) at    -18.08442125 eV
  | Occupation number:      2.00000000

  Lowest unoccupied state (CBM) at   -25.08966163 eV
  | Occupation number:      0.50000000

  Overall HOMO-LUMO gap:     -7.00524038 eV.
  Calculating total energy contributions from superposition of free atom densities.

  Total energy components:
  | Sum of eigenvalues            :         -88.99014862 Ha       -2421.54515084 eV
  | XC energy correction          :         -16.76402082 Ha        -456.17221629 eV
  | XC potential correction       :          21.55039927 Ha         586.41620056 eV
  | Free-atom electrostatic energy:         -71.89305466 Ha       -1956.30955312 eV
  | Hartree energy correction     :           0.00000000 Ha           0.00000000 eV
  | Entropy correction            :          -0.00020734 Ha          -0.00564190 eV
  | ---------------------------
  | Total energy                  :        -156.09682483 Ha       -4247.61071969 eV
  | Total energy, T -> 0          :        -156.09703217 Ha       -4247.61636158 eV  <-- do not rely on this value for anything but (periodic) metals
  | Electronic free energy        :        -156.09723950 Ha       -4247.62200348 eV

  Derived energy quantities:
  | Kinetic energy                :         143.86373572 Ha        3914.73142841 eV
  | Electrostatic energy          :        -283.19653974 Ha       -7706.16993181 eV
  | Energy correction for multipole
  | error in Hartree potential    :           0.00000000 Ha           0.00000000 eV
  | Sum of eigenvalues per atom                           :       -1210.77257542 eV
  | Total energy (T->0) per atom                          :       -2123.80818079 eV  <-- do not rely on this value for anything but (periodic) metals
  | Electronic free energy per atom                       :       -2123.81100174 eV
  Initialize hartree_potential_storage
  Max. number of atoms included in rho_multipole:            2

  End scf initialization - timings             :  max(cpu_time)    wall_clock(cpu1)
  | Time for scf. initialization               :        0.148 s           0.876 s
  | Boundary condition initialization          :        0.000 s           0.015 s
  | Relaxation initialization                  :        0.002 s           0.034 s
  | Integration                                :        0.064 s           0.188 s
  | Solution of K.-S. eqns.                    :        0.018 s           0.028 s
  | Grid partitioning                          :        0.025 s           0.383 s
  | Preloading free-atom quantities on grid    :        0.018 s           0.018 s
  | Free-atom superposition energy             :        0.010 s           0.022 s
  | Total energy evaluation                    :        0.001 s           0.032 s
------------------------------------------------------------

------------------------------------------------------------
          Initial SCF-cycle to compute last known
          density from restart information.

  Date     :  20190722, Time     :  142432.680
------------------------------------------------------------
  Evaluating new KS density.
  Integration grid: deviation in total charge (<rho> - N_e) =   3.010236E-09

  Evaluating partitioned Hartree potential by multipole expansion.
  | Analytical far-field extrapolation by fixed multipoles:
  | Hartree multipole sum: apparent total charge =   0.999999E+00
  Summing up the Hartree potential.
  Time summed over all CPUs for potential: real work        0.241 s, elapsed        0.244 s
  | RMS charge density error from multipole expansion :   0.828676E-03

  Integrating Hamiltonian matrix: batch-based integration.
  Time summed over all CPUs for integration: real work        0.172 s, elapsed        0.175 s

  Updating Kohn-Sham eigenvalues, eigenvectors, occupation numbers, and Fermi level.
  Solving generalized eigenproblem
  Updating Kohn-Sham eigenvalues and eigenfunctions.
  Transforming overlap matrix and checking for singularities.
  Overlap matrix is nonsingular:
  | Lowest eigenvalue:  0.279359E-03
  Solving real generalised eigenvalue problem by standard LAPACK (fast)
 BIG  0.999630458512643     
 FORCED TO: now -- previous           6           6           7           6
  Determining occupation numbers for Kohn-Sham eigenstates.
  | Chemical potential (Fermi level) in eV                 : -.1799E+02
  | Error in electron count due to remaining E_F inaccuracy: 0.1275E-11

  Highest occupied state (VBM) at    -17.99163897 eV
  | Occupation number:      1.26854102

  Lowest unoccupied state (CBM) at   -17.98075098 eV
  | Occupation number:      0.23145898

  Overall HOMO-LUMO gap:      0.01088799 eV.

  Total energy components:
  | Sum of eigenvalues            :         -89.28307160 Ha       -2429.51599053 eV
  | XC energy correction          :         -16.43217542 Ha        -447.14224359 eV
  | XC potential correction       :          21.11300266 Ha         574.51403324 eV
  | Free-atom electrostatic energy:         -71.89305466 Ha       -1956.30955312 eV
  | Hartree energy correction     :           6.83470289 Ha         185.98172831 eV
  | Entropy correction            :           0.00000000 Ha           0.00000000 eV
  | ---------------------------
  | Total energy                  :        -149.66059613 Ha       -4072.47202569 eV
  | Total energy, T -> 0          :        -149.66059613 Ha       -4072.47202569 eV  <-- do not rely on this value for anything but (periodic) metals
  | Electronic free energy        :        -149.66059613 Ha       -4072.47202569 eV

  Derived energy quantities:
  | Kinetic energy                :         149.78272745 Ha        4075.79538821 eV
  | Electrostatic energy          :        -283.01114816 Ha       -7701.12517031 eV
  | Energy correction for multipole
  | error in Hartree potential    :          -0.00131987 Ha          -0.03591558 eV
  | Sum of eigenvalues per atom                           :       -1214.75799527 eV
  | Total energy (T->0) per atom                          :       -2036.23601284 eV  <-- do not rely on this value for anything but (periodic) metals
  | Electronic free energy per atom                       :       -2036.23601284 eV

  Self-consistency convergence accuracy:
  | Change of charge density      :  0.2010E+00
  | Change of sum of eigenvalues  : -0.7971E+01 eV
  | Change of total energy        :  0.1751E+03 eV

  End self-consistency iteration #     0       :  max(cpu_time)    wall_clock(cpu1)
  | Time for this iteration                    :        0.162 s           1.051 s
  | Charge density update                      :        0.035 s           0.149 s
  | Density mixing                             :        0.000 s           0.000 s
  | Hartree multipole update                   :        0.027 s           0.053 s
  | Hartree multipole summation                :        0.031 s           0.098 s
  | Integration                                :        0.045 s           0.045 s
  | Solution of K.-S. eqns.                    :        0.024 s           0.704 s
  | Total energy evaluation                    :        0.001 s           0.001 s
------------------------------------------------------------

------------------------------------------------------------
          Begin self-consistency iteration #    1

  Date     :  20190722, Time     :  142433.733
------------------------------------------------------------
  Evaluating new KS density.
  Integration grid: deviation in total charge (<rho> - N_e) =   1.200817E-12
  Pulay mixing of updated and previous charge densities.

  Evaluating partitioned Hartree potential by multipole expansion.
  | Analytical far-field extrapolation by fixed multipoles:
  | Hartree multipole sum: apparent total charge =   0.999999E+00
  Summing up the Hartree potential.
  Time summed over all CPUs for potential: real work        0.102 s, elapsed        0.103 s
  | RMS charge density error from multipole expansion :   0.650266E-03

  Integrating Hamiltonian matrix: batch-based integration.
  Time summed over all CPUs for integration: real work        0.168 s, elapsed        0.171 s

  Updating Kohn-Sham eigenvalues, eigenvectors, occupation numbers, and Fermi level.
  Solving generalized eigenproblem
  Updating Kohn-Sham eigenvalues and eigenfunctions.
  Solving real generalised eigenvalue problem by standard LAPACK (fast)
 BIG  5.446418670452018E-003
 FORCED TO: now -- previous           7           7           6           6
  Determining occupation numbers for Kohn-Sham eigenstates.
  | Chemical potential (Fermi level) in eV                 : -.1809E+02
  | Error in electron count due to remaining E_F inaccuracy: 0.6476E-09

  Writing Kohn-Sham eigenvalues.

  State    Occupation    Eigenvalue [Ha]    Eigenvalue [eV]
      1       2.00000         -19.387020         -527.54765
      2       2.00000         -19.386939         -527.54546
      3       2.00000          -1.686845          -45.90137
      4       2.00000          -1.161873          -31.61616
      5       2.00000          -0.926488          -25.21102
      6       2.00000          -0.921494          -25.07512
      7       1.50000          -0.915759          -24.91907
      8       1.50000          -0.664838          -18.09117
      9       0.00000          -0.658777          -17.92622
     10       0.00000          -0.294670           -8.01838
     11       0.00000          -0.161442           -4.39306
     12       0.00000          -0.115228           -3.13552
     13       0.00000          -0.113066           -3.07669
     14       0.00000          -0.084911           -2.31055

  Highest occupied state (VBM) at    -18.09117000 eV
  | Occupation number:      1.50000000

  Lowest unoccupied state (CBM) at   -17.92622283 eV
  | Occupation number:      0.00000000

  Overall HOMO-LUMO gap:      0.16494717 eV.

  Total energy components:
  | Sum of eigenvalues            :         -89.31221248 Ha       -2430.30895447 eV
  | XC energy correction          :         -16.41826117 Ha        -446.76361752 eV
  | XC potential correction       :          21.09523486 Ha         574.03054689 eV
  | Free-atom electrostatic energy:         -71.89305466 Ha       -1956.30955312 eV
  | Hartree energy correction     :           6.86243625 Ha         186.73639138 eV
  | Entropy correction            :           0.00000000 Ha           0.00000000 eV
  | ---------------------------
  | Total energy                  :        -149.66585720 Ha       -4072.61518685 eV
  | Total energy, T -> 0          :        -149.66585720 Ha       -4072.61518685 eV  <-- do not rely on this value for anything but (periodic) metals
  | Electronic free energy        :        -149.66585720 Ha       -4072.61518685 eV

  Derived energy quantities:
  | Kinetic energy                :         149.67890534 Ha        4072.97024463 eV
  | Electrostatic energy          :        -282.92650137 Ha       -7698.82181395 eV
  | Energy correction for multipole
  | error in Hartree potential    :          -0.00118808 Ha          -0.03232918 eV
  | Sum of eigenvalues per atom                           :       -1215.15447724 eV
  | Total energy (T->0) per atom                          :       -2036.30759342 eV  <-- do not rely on this value for anything but (periodic) metals
  | Electronic free energy per atom                       :       -2036.30759342 eV

  Self-consistency convergence accuracy:
  | Change of charge density      :  0.3100E+00
  | Change of sum of eigenvalues  : -0.7930E+00 eV
  | Change of total energy        : -0.1432E+00 eV

  End self-consistency iteration #     1       :  max(cpu_time)    wall_clock(cpu1)
  | Time for this iteration                    :        0.110 s           0.127 s
  | Charge density update                      :        0.031 s           0.031 s
  | Density mixing                             :        0.001 s           0.019 s
  | Hartree multipole update                   :        0.005 s           0.004 s
  | Hartree multipole summation                :        0.027 s           0.027 s
  | Integration                                :        0.043 s           0.043 s
  | Solution of K.-S. eqns.                    :        0.001 s           0.001 s
  | Total energy evaluation                    :        0.000 s           0.001 s
------------------------------------------------------------

------------------------------------------------------------
          Begin self-consistency iteration #    2

  Date     :  20190722, Time     :  142433.860
------------------------------------------------------------
  Evaluating new KS density.
  Integration grid: deviation in total charge (<rho> - N_e) =   6.476277E-10
  Pulay mixing of updated and previous charge densities.

  Evaluating partitioned Hartree potential by multipole expansion.
  | Analytical far-field extrapolation by fixed multipoles:
  | Hartree multipole sum: apparent total charge =   0.999999E+00
  Summing up the Hartree potential.
  Time summed over all CPUs for potential: real work        0.100 s, elapsed        0.101 s
  | RMS charge density error from multipole expansion :   0.657665E-03

  Integrating Hamiltonian matrix: batch-based integration.
  Time summed over all CPUs for integration: real work        0.168 s, elapsed        0.172 s

  Updating Kohn-Sham eigenvalues, eigenvectors, occupation numbers, and Fermi level.
  Solving generalized eigenproblem
  Updating Kohn-Sham eigenvalues and eigenfunctions.
  Solving real generalised eigenvalue problem by standard LAPACK (fast)
 BIG  0.998752551514162     
 FORCED TO: now -- previous           7           7           7           7
  Determining occupation numbers for Kohn-Sham eigenstates.
  | Chemical potential (Fermi level) in eV                 : -.1803E+02
  | Error in electron count due to remaining E_F inaccuracy: 0.2283E-10

  Highest occupied state (VBM) at    -18.03295893 eV
  | Occupation number:      1.50000000

  Lowest unoccupied state (CBM) at   -17.96719356 eV
  | Occupation number:      0.00000000

  Overall HOMO-LUMO gap:      0.06576537 eV.

  Total energy components:
  | Sum of eigenvalues            :         -89.31003988 Ha       -2430.24983489 eV
  | XC energy correction          :         -16.41064766 Ha        -446.55644331 eV
  | XC potential correction       :          21.08549822 Ha         573.76559939 eV
  | Free-atom electrostatic energy:         -71.89305466 Ha       -1956.30955312 eV
  | Hartree energy correction     :           6.86973030 Ha         186.93487269 eV
  | Entropy correction            :           0.00000000 Ha           0.00000000 eV
  | ---------------------------
  | Total energy                  :        -149.65851367 Ha       -4072.41535924 eV
  | Total energy, T -> 0          :        -149.65851367 Ha       -4072.41535924 eV  <-- do not rely on this value for anything but (periodic) metals
  | Electronic free energy        :        -149.65851367 Ha       -4072.41535924 eV

  Derived energy quantities:
  | Kinetic energy                :         149.62957096 Ha        4071.62778803 eV
  | Electrostatic energy          :        -282.87743698 Ha       -7697.48670396 eV
  | Energy correction for multipole
  | error in Hartree potential    :          -0.00113505 Ha          -0.03088640 eV
  | Sum of eigenvalues per atom                           :       -1215.12491744 eV
  | Total energy (T->0) per atom                          :       -2036.20767962 eV  <-- do not rely on this value for anything but (periodic) metals
  | Electronic free energy per atom                       :       -2036.20767962 eV

  Self-consistency convergence accuracy:
  | Change of charge density      :  0.3114E+00
  | Change of sum of eigenvalues  :  0.5912E-01 eV
  | Change of total energy        :  0.1998E+00 eV

  End self-consistency iteration #     2       :  max(cpu_time)    wall_clock(cpu1)
  | Time for this iteration                    :        0.108 s           0.151 s
  | Charge density update                      :        0.029 s           0.029 s
  | Density mixing                             :        0.003 s           0.046 s
  | Hartree multipole update                   :        0.005 s           0.004 s
  | Hartree multipole summation                :        0.026 s           0.026 s
  | Integration                                :        0.043 s           0.044 s
  | Solution of K.-S. eqns.                    :        0.001 s           0.001 s
  | Total energy evaluation                    :        0.000 s           0.001 s
------------------------------------------------------------

------------------------------------------------------------
          Begin self-consistency iteration #    3

  Date     :  20190722, Time     :  142434.011
------------------------------------------------------------
  Evaluating new KS density.
  Integration grid: deviation in total charge (<rho> - N_e) =   2.281553E-11
  Pulay mixing of updated and previous charge densities.

  Evaluating partitioned Hartree potential by multipole expansion.
  | Analytical far-field extrapolation by fixed multipoles:
  | Hartree multipole sum: apparent total charge =   0.999999E+00
  Summing up the Hartree potential.
  Time summed over all CPUs for potential: real work        0.102 s, elapsed        0.104 s
  | RMS charge density error from multipole expansion :   0.791784E-03

  Integrating Hamiltonian matrix: batch-based integration.
  Time summed over all CPUs for integration: real work        0.167 s, elapsed        0.169 s

  Updating Kohn-Sham eigenvalues, eigenvectors, occupation numbers, and Fermi level.
  Solving generalized eigenproblem
  Updating Kohn-Sham eigenvalues and eigenfunctions.
  Solving real generalised eigenvalue problem by standard LAPACK (fast)
 BIG  5.223314060198057E-002
 FORCED TO: now -- previous           7           7           7           7
  Determining occupation numbers for Kohn-Sham eigenstates.
  | Chemical potential (Fermi level) in eV                 : -.1817E+02
  | Error in electron count due to remaining E_F inaccuracy: 0.1776E-13

  Highest occupied state (VBM) at    -18.17101796 eV
  | Occupation number:      1.50000000

  Lowest unoccupied state (CBM) at   -17.76059084 eV
  | Occupation number:      0.00000000

  Overall HOMO-LUMO gap:      0.41042712 eV.

  Total energy components:
  | Sum of eigenvalues            :         -89.34694213 Ha       -2431.25399616 eV
  | XC energy correction          :         -16.38423147 Ha        -445.83762233 eV
  | XC potential correction       :          21.05162875 Ha         572.84396435 eV
  | Free-atom electrostatic energy:         -71.89305466 Ha       -1956.30955312 eV
  | Hartree energy correction     :           6.89730161 Ha         187.68512621 eV
  | Entropy correction            :           0.00000000 Ha           0.00000000 eV
  | ---------------------------
  | Total energy                  :        -149.67529789 Ha       -4072.87208104 eV
  | Total energy, T -> 0          :        -149.67529789 Ha       -4072.87208104 eV  <-- do not rely on this value for anything but (periodic) metals
  | Electronic free energy        :        -149.67529789 Ha       -4072.87208104 eV

  Derived energy quantities:
  | Kinetic energy                :         149.34134117 Ha        4063.78465632 eV
  | Electrostatic energy          :        -282.63240759 Ha       -7690.81911503 eV
  | Energy correction for multipole
  | error in Hartree potential    :          -0.00086873 Ha          -0.02363923 eV
  | Sum of eigenvalues per atom                           :       -1215.62699808 eV
  | Total energy (T->0) per atom                          :       -2036.43604052 eV  <-- do not rely on this value for anything but (periodic) metals
  | Electronic free energy per atom                       :       -2036.43604052 eV

  Self-consistency convergence accuracy:
  | Change of charge density      :  0.2749E+00
  | Change of sum of eigenvalues  : -0.1004E+01 eV
  | Change of total energy        : -0.4567E+00 eV

  End self-consistency iteration #     3       :  max(cpu_time)    wall_clock(cpu1)
  | Time for this iteration                    :        0.106 s           0.107 s
  | Charge density update                      :        0.029 s           0.029 s
  | Density mixing                             :        0.002 s           0.002 s
  | Hartree multipole update                   :        0.005 s           0.004 s
  | Hartree multipole summation                :        0.026 s           0.027 s
  | Integration                                :        0.043 s           0.043 s
  | Solution of K.-S. eqns.                    :        0.001 s           0.001 s
  | Total energy evaluation                    :        0.000 s           0.001 s
------------------------------------------------------------

------------------------------------------------------------
          Begin self-consistency iteration #    4

  Date     :  20190722, Time     :  142434.118
------------------------------------------------------------
  Evaluating new KS density.
  Integration grid: deviation in total charge (<rho> - N_e) =   1.776357E-14
  Pulay mixing of updated and previous charge densities.

  Evaluating partitioned Hartree potential by multipole expansion.
  | Analytical far-field extrapolation by fixed multipoles:
  | Hartree multipole sum: apparent total charge =   0.999999E+00
  Summing up the Hartree potential.
  Time summed over all CPUs for potential: real work        0.099 s, elapsed        0.100 s
  | RMS charge density error from multipole expansion :   0.649444E-03

  Integrating Hamiltonian matrix: batch-based integration.
  Time summed over all CPUs for integration: real work        0.168 s, elapsed        0.172 s

  Updating Kohn-Sham eigenvalues, eigenvectors, occupation numbers, and Fermi level.
  Solving generalized eigenproblem
  Updating Kohn-Sham eigenvalues and eigenfunctions.
  Solving real generalised eigenvalue problem by standard LAPACK (fast)
 BIG  0.999963296393487     
 FORCED TO: now -- previous           7           7           7           7
  Determining occupation numbers for Kohn-Sham eigenstates.
  | Chemical potential (Fermi level) in eV                 : -.1813E+02
  | Error in electron count due to remaining E_F inaccuracy: 0.1776E-13

  Highest occupied state (VBM) at    -18.13010441 eV
  | Occupation number:      1.50000000

  Lowest unoccupied state (CBM) at   -17.82639295 eV
  | Occupation number:      0.00000000

  Overall HOMO-LUMO gap:      0.30371145 eV.

  Total energy components:
  | Sum of eigenvalues            :         -89.35598403 Ha       -2431.50003869 eV
  | XC energy correction          :         -16.37469242 Ha        -445.57805149 eV
  | XC potential correction       :          21.03954001 Ha         572.51501281 eV
  | Free-atom electrostatic energy:         -71.89305466 Ha       -1956.30955312 eV
  | Hartree energy correction     :           6.91288312 Ha         188.10912048 eV
  | Entropy correction            :           0.00000000 Ha           0.00000000 eV
  | ---------------------------
  | Total energy                  :        -149.67130798 Ha       -4072.76351000 eV
  | Total energy, T -> 0          :        -149.67130798 Ha       -4072.76351000 eV  <-- do not rely on this value for anything but (periodic) metals
  | Electronic free energy        :        -149.67130798 Ha       -4072.76351000 eV

  Derived energy quantities:
  | Kinetic energy                :         149.27980462 Ha        4062.11016166 eV
  | Electrostatic energy          :        -282.57642018 Ha       -7689.29562017 eV
  | Energy correction for multipole
  | error in Hartree potential    :          -0.00075990 Ha          -0.02067788 eV
  | Sum of eigenvalues per atom                           :       -1215.75001934 eV
  | Total energy (T->0) per atom                          :       -2036.38175500 eV  <-- do not rely on this value for anything but (periodic) metals
  | Electronic free energy per atom                       :       -2036.38175500 eV

  Self-consistency convergence accuracy:
  | Change of charge density      :  0.4779E+00
  | Change of sum of eigenvalues  : -0.2460E+00 eV
  | Change of total energy        :  0.1086E+00 eV

  End self-consistency iteration #     4       :  max(cpu_time)    wall_clock(cpu1)
  | Time for this iteration                    :        0.106 s           0.106 s
  | Charge density update                      :        0.029 s           0.029 s
  | Density mixing                             :        0.001 s           0.002 s
  | Hartree multipole update                   :        0.005 s           0.004 s
  | Hartree multipole summation                :        0.026 s           0.026 s
  | Integration                                :        0.043 s           0.043 s
  | Solution of K.-S. eqns.                    :        0.002 s           0.001 s
  | Total energy evaluation                    :        0.000 s           0.001 s
------------------------------------------------------------

------------------------------------------------------------
          Begin self-consistency iteration #    5

  Date     :  20190722, Time     :  142434.225
------------------------------------------------------------
  Evaluating new KS density.
  Integration grid: deviation in total charge (<rho> - N_e) =  -7.105427E-15
  Pulay mixing of updated and previous charge densities.

  Evaluating partitioned Hartree potential by multipole expansion.
  | Analytical far-field extrapolation by fixed multipoles:
  | Hartree multipole sum: apparent total charge =   0.999999E+00
  Summing up the Hartree potential.
  Time summed over all CPUs for potential: real work        0.101 s, elapsed        0.102 s
  | RMS charge density error from multipole expansion :   0.509881E-03

  Integrating Hamiltonian matrix: batch-based integration.
  Time summed over all CPUs for integration: real work        0.166 s, elapsed        0.168 s

  Updating Kohn-Sham eigenvalues, eigenvectors, occupation numbers, and Fermi level.
  Solving generalized eigenproblem
  Updating Kohn-Sham eigenvalues and eigenfunctions.
  Solving real generalised eigenvalue problem by standard LAPACK (fast)
 BIG  0.991005461308788     
 FORCED TO: now -- previous           6           6           7           7
  Determining occupation numbers for Kohn-Sham eigenstates.
  | Chemical potential (Fermi level) in eV                 : -.1822E+02
  | Error in electron count due to remaining E_F inaccuracy: -.6771E-11

  Highest occupied state (VBM) at    -18.22056954 eV
  | Occupation number:      1.50000000

  Lowest unoccupied state (CBM) at   -17.80150665 eV
  | Occupation number:      0.00000000

  Overall HOMO-LUMO gap:      0.41906289 eV.

  Total energy components:
  | Sum of eigenvalues            :         -89.35653075 Ha       -2431.51491573 eV
  | XC energy correction          :         -16.38265910 Ha        -445.79483585 eV
  | XC potential correction       :          21.04985201 Ha         572.79561670 eV
  | Free-atom electrostatic energy:         -71.89305466 Ha       -1956.30955312 eV
  | Hartree energy correction     :           6.91666986 Ha         188.21216312 eV
  | Entropy correction            :           0.00000000 Ha           0.00000000 eV
  | ---------------------------
  | Total energy                  :        -149.66572263 Ha       -4072.61152487 eV
  | Total energy, T -> 0          :        -149.66572263 Ha       -4072.61152487 eV  <-- do not rely on this value for anything but (periodic) metals
  | Electronic free energy        :        -149.66572263 Ha       -4072.61152487 eV

  Derived energy quantities:
  | Kinetic energy                :         149.34999178 Ha        4064.02005152 eV
  | Electrostatic energy          :        -282.63305531 Ha       -7690.83674054 eV
  | Energy correction for multipole
  | error in Hartree potential    :          -0.00067791 Ha          -0.01844700 eV
  | Sum of eigenvalues per atom                           :       -1215.75745786 eV
  | Total energy (T->0) per atom                          :       -2036.30576243 eV  <-- do not rely on this value for anything but (periodic) metals
  | Electronic free energy per atom                       :       -2036.30576243 eV

  Self-consistency convergence accuracy:
  | Change of charge density      :  0.4418E+00
  | Change of sum of eigenvalues  : -0.1488E-01 eV
  | Change of total energy        :  0.1520E+00 eV

  End self-consistency iteration #     5       :  max(cpu_time)    wall_clock(cpu1)
  | Time for this iteration                    :        0.106 s           0.106 s
  | Charge density update                      :        0.029 s           0.028 s
  | Density mixing                             :        0.001 s           0.003 s
  | Hartree multipole update                   :        0.005 s           0.004 s
  | Hartree multipole summation                :        0.026 s           0.026 s
  | Integration                                :        0.043 s           0.042 s
  | Solution of K.-S. eqns.                    :        0.001 s           0.002 s
  | Total energy evaluation                    :        0.001 s           0.000 s
------------------------------------------------------------

------------------------------------------------------------
          Begin self-consistency iteration #    6

  Date     :  20190722, Time     :  142434.331
------------------------------------------------------------
  Evaluating new KS density.
  Integration grid: deviation in total charge (<rho> - N_e) =  -6.766143E-12
  Pulay mixing of updated and previous charge densities.

  Evaluating partitioned Hartree potential by multipole expansion.
  | Analytical far-field extrapolation by fixed multipoles:
  | Hartree multipole sum: apparent total charge =   0.999999E+00
  Summing up the Hartree potential.
  Time summed over all CPUs for potential: real work        0.101 s, elapsed        0.102 s
  | RMS charge density error from multipole expansion :   0.516812E-03

  Integrating Hamiltonian matrix: batch-based integration.
  Time summed over all CPUs for integration: real work        0.167 s, elapsed        0.170 s

  Updating Kohn-Sham eigenvalues, eigenvectors, occupation numbers, and Fermi level.
  Solving generalized eigenproblem
  Updating Kohn-Sham eigenvalues and eigenfunctions.
  Solving real generalised eigenvalue problem by standard LAPACK (fast)
 BIG  0.999964815112870     
 FORCED TO: now -- previous           6           6           6           6
  Determining occupation numbers for Kohn-Sham eigenstates.
  | Chemical potential (Fermi level) in eV                 : -.1822E+02
  | Error in electron count due to remaining E_F inaccuracy: -.2155E-11

  Highest occupied state (VBM) at    -18.22594176 eV
  | Occupation number:      1.50000000

  Lowest unoccupied state (CBM) at   -17.79581240 eV
  | Occupation number:      0.00000000

  Overall HOMO-LUMO gap:      0.43012936 eV.

  Total energy components:
  | Sum of eigenvalues            :         -89.35682820 Ha       -2431.52300978 eV
  | XC energy correction          :         -16.38279451 Ha        -445.79852051 eV
  | XC potential correction       :          21.05002253 Ha         572.80025668 eV
  | Free-atom electrostatic energy:         -71.89305466 Ha       -1956.30955312 eV
  | Hartree energy correction     :           6.91655582 Ha         188.20905974 eV
  | Entropy correction            :           0.00000000 Ha           0.00000000 eV
  | ---------------------------
  | Total energy                  :        -149.66609902 Ha       -4072.62176699 eV
  | Total energy, T -> 0          :        -149.66609902 Ha       -4072.62176699 eV  <-- do not rely on this value for anything but (periodic) metals
  | Electronic free energy        :        -149.66609902 Ha       -4072.62176699 eV

  Derived energy quantities:
  | Kinetic energy                :         149.34853542 Ha        4063.98042176 eV
  | Electrostatic energy          :        -282.63183993 Ha       -7690.80366824 eV
  | Energy correction for multipole
  | error in Hartree potential    :          -0.00067475 Ha          -0.01836081 eV
  | Sum of eigenvalues per atom                           :       -1215.76150489 eV
  | Total energy (T->0) per atom                          :       -2036.31088350 eV  <-- do not rely on this value for anything but (periodic) metals
  | Electronic free energy per atom                       :       -2036.31088350 eV

  Self-consistency convergence accuracy:
  | Change of charge density      :  0.3063E+00
  | Change of sum of eigenvalues  : -0.8094E-02 eV
  | Change of total energy        : -0.1024E-01 eV

  End self-consistency iteration #     6       :  max(cpu_time)    wall_clock(cpu1)
  | Time for this iteration                    :        0.107 s           0.107 s
  | Charge density update                      :        0.029 s           0.029 s
  | Density mixing                             :        0.002 s           0.002 s
  | Hartree multipole update                   :        0.005 s           0.004 s
  | Hartree multipole summation                :        0.026 s           0.027 s
  | Integration                                :        0.043 s           0.043 s
  | Solution of K.-S. eqns.                    :        0.001 s           0.001 s
  | Total energy evaluation                    :        0.000 s           0.001 s
------------------------------------------------------------

------------------------------------------------------------
          Begin self-consistency iteration #    7

  Date     :  20190722, Time     :  142434.438
------------------------------------------------------------
  Evaluating new KS density.
  Integration grid: deviation in total charge (<rho> - N_e) =  -2.156497E-12
  Pulay mixing of updated and previous charge densities.

  Evaluating partitioned Hartree potential by multipole expansion.
  | Analytical far-field extrapolation by fixed multipoles:
  | Hartree multipole sum: apparent total charge =   0.999999E+00
  Summing up the Hartree potential.
  Time summed over all CPUs for potential: real work        0.101 s, elapsed        0.103 s
  | RMS charge density error from multipole expansion :   0.525171E-03

  Integrating Hamiltonian matrix: batch-based integration.
  Time summed over all CPUs for integration: real work        0.167 s, elapsed        0.169 s

  Updating Kohn-Sham eigenvalues, eigenvectors, occupation numbers, and Fermi level.
  Solving generalized eigenproblem
  Updating Kohn-Sham eigenvalues and eigenfunctions.
  Solving real generalised eigenvalue problem by standard LAPACK (fast)
 BIG  0.999999461066733     
 FORCED TO: now -- previous           6           6           6           6
  Determining occupation numbers for Kohn-Sham eigenstates.
  | Chemical potential (Fermi level) in eV                 : -.1823E+02
  | Error in electron count due to remaining E_F inaccuracy: 0.1776E-13

  Highest occupied state (VBM) at    -18.23221843 eV
  | Occupation number:      1.50000000

  Lowest unoccupied state (CBM) at   -17.78903244 eV
  | Occupation number:      0.00000000

  Overall HOMO-LUMO gap:      0.44318599 eV.

  Total energy components:
  | Sum of eigenvalues            :         -89.35703820 Ha       -2431.52872415 eV
  | XC energy correction          :         -16.38302928 Ha        -445.80490905 eV
  | XC potential correction       :          21.05031931 Ha         572.80833249 eV
  | Free-atom electrostatic energy:         -71.89305466 Ha       -1956.30955312 eV
  | Hartree energy correction     :           6.91627077 Ha         188.20130322 eV
  | Entropy correction            :           0.00000000 Ha           0.00000000 eV
  | ---------------------------
  | Total energy                  :        -149.66653206 Ha       -4072.63355061 eV
  | Total energy, T -> 0          :        -149.66653206 Ha       -4072.63355061 eV  <-- do not rely on this value for anything but (periodic) metals
  | Electronic free energy        :        -149.66653206 Ha       -4072.63355061 eV

  Derived energy quantities:
  | Kinetic energy                :         149.34749204 Ha        4063.95202997 eV
  | Electrostatic energy          :        -282.63099482 Ha       -7690.78067153 eV
  | Energy correction for multipole
  | error in Hartree potential    :          -0.00067220 Ha          -0.01829156 eV
  | Sum of eigenvalues per atom                           :       -1215.76436207 eV
  | Total energy (T->0) per atom                          :       -2036.31677531 eV  <-- do not rely on this value for anything but (periodic) metals
  | Electronic free energy per atom                       :       -2036.31677531 eV

  Self-consistency convergence accuracy:
  | Change of charge density      :  0.3101E+00
  | Change of sum of eigenvalues  : -0.5714E-02 eV
  | Change of total energy        : -0.1178E-01 eV

  End self-consistency iteration #     7       :  max(cpu_time)    wall_clock(cpu1)
  | Time for this iteration                    :        0.107 s           0.107 s
  | Charge density update                      :        0.029 s           0.029 s
  | Density mixing                             :        0.003 s           0.003 s
  | Hartree multipole update                   :        0.004 s           0.004 s
  | Hartree multipole summation                :        0.026 s           0.026 s
  | Integration                                :        0.043 s           0.043 s
  | Solution of K.-S. eqns.                    :        0.001 s           0.001 s
  | Total energy evaluation                    :        0.000 s           0.001 s
------------------------------------------------------------

------------------------------------------------------------
          Begin self-consistency iteration #    8

  Date     :  20190722, Time     :  142434.546
------------------------------------------------------------
  Evaluating new KS density.
  Integration grid: deviation in total charge (<rho> - N_e) =   8.881784E-15
  Pulay mixing of updated and previous charge densities.

  Evaluating partitioned Hartree potential by multipole expansion.
  | Analytical far-field extrapolation by fixed multipoles:
  | Hartree multipole sum: apparent total charge =   0.999999E+00
  Summing up the Hartree potential.
  Time summed over all CPUs for potential: real work        0.100 s, elapsed        0.101 s
  | RMS charge density error from multipole expansion :   0.820809E-03

  Integrating Hamiltonian matrix: batch-based integration.
  Time summed over all CPUs for integration: real work        0.167 s, elapsed        0.169 s

  Updating Kohn-Sham eigenvalues, eigenvectors, occupation numbers, and Fermi level.
  Solving generalized eigenproblem
  Updating Kohn-Sham eigenvalues and eigenfunctions.
  Solving real generalised eigenvalue problem by standard LAPACK (fast)
 BIG  0.296141339249876     
 FORCED TO: now -- previous           6           6           6           6
  Determining occupation numbers for Kohn-Sham eigenstates.
  | Chemical potential (Fermi level) in eV                 : -.1838E+02
  | Error in electron count due to remaining E_F inaccuracy: 0.9558E-09

  Highest occupied state (VBM) at    -18.38023599 eV
  | Occupation number:      1.50000000

  Lowest unoccupied state (CBM) at   -17.58159825 eV
  | Occupation number:      0.00000000

  Overall HOMO-LUMO gap:      0.79863774 eV.

  Total energy components:
  | Sum of eigenvalues            :         -89.35219982 Ha       -2431.39706517 eV
  | XC energy correction          :         -16.39593726 Ha        -446.15615292 eV
  | XC potential correction       :          21.06663987 Ha         573.25243771 eV
  | Free-atom electrostatic energy:         -71.89305466 Ha       -1956.30955312 eV
  | Hartree energy correction     :           6.89149979 Ha         187.52725068 eV
  | Entropy correction            :           0.00000000 Ha           0.00000000 eV
  | ---------------------------
  | Total energy                  :        -149.68305206 Ha       -4073.08308281 eV
  | Total energy, T -> 0          :        -149.68305206 Ha       -4073.08308281 eV  <-- do not rely on this value for anything but (periodic) metals
  | Electronic free energy        :        -149.68305206 Ha       -4073.08308281 eV

  Derived energy quantities:
  | Kinetic energy                :         149.33899028 Ha        4063.72068524 eV
  | Electrostatic energy          :        -282.62610508 Ha       -7690.64761513 eV
  | Energy correction for multipole
  | error in Hartree potential    :          -0.00067119 Ha          -0.01826394 eV
  | Sum of eigenvalues per atom                           :       -1215.69853258 eV
  | Total energy (T->0) per atom                          :       -2036.54154140 eV  <-- do not rely on this value for anything but (periodic) metals
  | Electronic free energy per atom                       :       -2036.54154140 eV

  Self-consistency convergence accuracy:
  | Change of charge density      :  0.3143E+00
  | Change of sum of eigenvalues  :  0.1317E+00 eV
  | Change of total energy        : -0.4495E+00 eV

  End self-consistency iteration #     8       :  max(cpu_time)    wall_clock(cpu1)
  | Time for this iteration                    :        0.107 s           0.107 s
  | Charge density update                      :        0.029 s           0.028 s
  | Density mixing                             :        0.003 s           0.004 s
  | Hartree multipole update                   :        0.005 s           0.004 s
  | Hartree multipole summation                :        0.026 s           0.026 s
  | Integration                                :        0.043 s           0.043 s
  | Solution of K.-S. eqns.                    :        0.001 s           0.001 s
  | Total energy evaluation                    :        0.000 s           0.001 s
------------------------------------------------------------

------------------------------------------------------------
          Begin self-consistency iteration #    9

  Date     :  20190722, Time     :  142434.653
------------------------------------------------------------
  Evaluating new KS density.
  Integration grid: deviation in total charge (<rho> - N_e) =   9.558132E-10
  Pulay mixing of updated and previous charge densities.

  Evaluating partitioned Hartree potential by multipole expansion.
  | Analytical far-field extrapolation by fixed multipoles:
  | Hartree multipole sum: apparent total charge =   0.999999E+00
  Summing up the Hartree potential.
  Time summed over all CPUs for potential: real work        0.100 s, elapsed        0.101 s
  | RMS charge density error from multipole expansion :   0.553854E-03

  Integrating Hamiltonian matrix: batch-based integration.
  Time summed over all CPUs for integration: real work        0.168 s, elapsed        0.172 s

  Updating Kohn-Sham eigenvalues, eigenvectors, occupation numbers, and Fermi level.
  Solving generalized eigenproblem
  Updating Kohn-Sham eigenvalues and eigenfunctions.
  Solving real generalised eigenvalue problem by standard LAPACK (fast)
 BIG  0.290141308108585     
 FORCED TO: now -- previous           6           6           6           6
  Determining occupation numbers for Kohn-Sham eigenstates.
  | Chemical potential (Fermi level) in eV                 : -.1820E+02
  | Error in electron count due to remaining E_F inaccuracy: 0.1776E-13

  Highest occupied state (VBM) at    -18.20193943 eV
  | Occupation number:      1.50000000

  Lowest unoccupied state (CBM) at   -17.76574121 eV
  | Occupation number:      0.00000000

  Overall HOMO-LUMO gap:      0.43619822 eV.

  Total energy components:
  | Sum of eigenvalues            :         -89.35173863 Ha       -2431.38451554 eV
  | XC energy correction          :         -16.38073750 Ha        -445.74254645 eV
  | XC potential correction       :          21.04741320 Ha         572.72925335 eV
  | Free-atom electrostatic energy:         -71.89305466 Ha       -1956.30955312 eV
  | Hartree energy correction     :           6.91084773 Ha         188.05373489 eV
  | Entropy correction            :           0.00000000 Ha           0.00000000 eV
  | ---------------------------
  | Total energy                  :        -149.66726985 Ha       -4072.65362687 eV
  | Total energy, T -> 0          :        -149.66726985 Ha       -4072.65362687 eV  <-- do not rely on this value for anything but (periodic) metals
  | Electronic free energy        :        -149.66726985 Ha       -4072.65362687 eV

  Derived energy quantities:
  | Kinetic energy                :         149.32204934 Ha        4063.25969894 eV
  | Electrostatic energy          :        -282.60858169 Ha       -7690.17077936 eV
  | Energy correction for multipole
  | error in Hartree potential    :          -0.00064873 Ha          -0.01765272 eV
  | Sum of eigenvalues per atom                           :       -1215.69225777 eV
  | Total energy (T->0) per atom                          :       -2036.32681343 eV  <-- do not rely on this value for anything but (periodic) metals
  | Electronic free energy per atom                       :       -2036.32681343 eV

  Self-consistency convergence accuracy:
  | Change of charge density      :  0.4985E+00
  | Change of sum of eigenvalues  :  0.1255E-01 eV
  | Change of total energy        :  0.4295E+00 eV

  End self-consistency iteration #     9       :  max(cpu_time)    wall_clock(cpu1)
  | Time for this iteration                    :        0.108 s           0.108 s
  | Charge density update                      :        0.028 s           0.028 s
  | Density mixing                             :        0.004 s           0.004 s
  | Hartree multipole update                   :        0.005 s           0.005 s
  | Hartree multipole summation                :        0.026 s           0.026 s
  | Integration                                :        0.044 s           0.043 s
  | Solution of K.-S. eqns.                    :        0.001 s           0.001 s
  | Total energy evaluation                    :        0.000 s           0.001 s
------------------------------------------------------------

------------------------------------------------------------
          Begin self-consistency iteration #   10

  Date     :  20190722, Time     :  142434.762
------------------------------------------------------------
  Evaluating new KS density.
  Integration grid: deviation in total charge (<rho> - N_e) =   2.486900E-14
  Pulay mixing of updated and previous charge densities.

  Evaluating partitioned Hartree potential by multipole expansion.
  | Analytical far-field extrapolation by fixed multipoles:
  | Hartree multipole sum: apparent total charge =   0.999999E+00
  Summing up the Hartree potential.
  Time summed over all CPUs for potential: real work        0.110 s, elapsed        0.110 s
  | RMS charge density error from multipole expansion :   0.791973E-03

  Integrating Hamiltonian matrix: batch-based integration.
  Time summed over all CPUs for integration: real work        0.173 s, elapsed        0.177 s

  Updating Kohn-Sham eigenvalues, eigenvectors, occupation numbers, and Fermi level.
  Solving generalized eigenproblem
  Updating Kohn-Sham eigenvalues and eigenfunctions.
  Solving real generalised eigenvalue problem by standard LAPACK (fast)
 BIG  0.985337364042737     
 FORCED TO: now -- previous           6           6           6           6
  Determining occupation numbers for Kohn-Sham eigenstates.
  | Chemical potential (Fermi level) in eV                 : -.1825E+02
  | Error in electron count due to remaining E_F inaccuracy: 0.5596E-12

  Highest occupied state (VBM) at    -18.25350404 eV
  | Occupation number:      1.50000000

  Lowest unoccupied state (CBM) at   -17.60278067 eV
  | Occupation number:      0.00000000

  Overall HOMO-LUMO gap:      0.65072337 eV.

  Total energy components:
  | Sum of eigenvalues            :         -89.34206163 Ha       -2431.12119096 eV
  | XC energy correction          :         -16.38257324 Ha        -445.79249963 eV
  | XC potential correction       :          21.04964245 Ha         572.78991440 eV
  | Free-atom electrostatic energy:         -71.89305466 Ha       -1956.30955312 eV
  | Hartree energy correction     :           6.89006685 Ha         187.48825833 eV
  | Entropy correction            :           0.00000000 Ha           0.00000000 eV
  | ---------------------------
  | Total energy                  :        -149.67798022 Ha       -4072.94507096 eV
  | Total energy, T -> 0          :        -149.67798022 Ha       -4072.94507096 eV  <-- do not rely on this value for anything but (periodic) metals
  | Electronic free energy        :        -149.67798022 Ha       -4072.94507096 eV

  Derived energy quantities:
  | Kinetic energy                :         149.25433726 Ha        4061.41715936 eV
  | Electrostatic energy          :        -282.54974423 Ha       -7688.56973069 eV
  | Energy correction for multipole
  | error in Hartree potential    :          -0.00062511 Ha          -0.01701011 eV
  | Sum of eigenvalues per atom                           :       -1215.56059548 eV
  | Total energy (T->0) per atom                          :       -2036.47253548 eV  <-- do not rely on this value for anything but (periodic) metals
  | Electronic free energy per atom                       :       -2036.47253548 eV

  Self-consistency convergence accuracy:
  | Change of charge density      :  0.3242E+00
  | Change of sum of eigenvalues  :  0.2633E+00 eV
  | Change of total energy        : -0.2914E+00 eV

  End self-consistency iteration #    10       :  max(cpu_time)    wall_clock(cpu1)
  | Time for this iteration                    :        0.117 s           0.119 s
  | Charge density update                      :        0.029 s           0.028 s
  | Density mixing                             :        0.003 s           0.005 s
  | Hartree multipole update                   :        0.006 s           0.006 s
  | Hartree multipole summation                :        0.027 s           0.028 s
  | Integration                                :        0.045 s           0.045 s
  | Solution of K.-S. eqns.                    :        0.005 s           0.005 s
  | Total energy evaluation                    :        0.001 s           0.001 s
------------------------------------------------------------

------------------------------------------------------------
          Begin self-consistency iteration #   11

  Date     :  20190722, Time     :  142434.882
------------------------------------------------------------
  Evaluating new KS density.
  Integration grid: deviation in total charge (<rho> - N_e) =   5.506706E-13
  Pulay mixing of updated and previous charge densities.

  Evaluating partitioned Hartree potential by multipole expansion.
  | Analytical far-field extrapolation by fixed multipoles:
  | Hartree multipole sum: apparent total charge =   0.999999E+00
  Summing up the Hartree potential.
  Time summed over all CPUs for potential: real work        0.100 s, elapsed        0.101 s
  | RMS charge density error from multipole expansion :   0.655709E-03

  Integrating Hamiltonian matrix: batch-based integration.
  Time summed over all CPUs for integration: real work        0.168 s, elapsed        0.172 s

  Updating Kohn-Sham eigenvalues, eigenvectors, occupation numbers, and Fermi level.
  Solving generalized eigenproblem
  Updating Kohn-Sham eigenvalues and eigenfunctions.
  Solving real generalised eigenvalue problem by standard LAPACK (fast)
 BIG  0.999362789466214     
 FORCED TO: now -- previous           6           6           6           6
  Determining occupation numbers for Kohn-Sham eigenstates.
  | Chemical potential (Fermi level) in eV                 : -.1821E+02
  | Error in electron count due to remaining E_F inaccuracy: 0.7549E-09

  Highest occupied state (VBM) at    -18.21188423 eV
  | Occupation number:      1.50000000

  Lowest unoccupied state (CBM) at   -17.69360637 eV
  | Occupation number:      0.00000000

  Overall HOMO-LUMO gap:      0.51827786 eV.

  Total energy components:
  | Sum of eigenvalues            :         -89.34559551 Ha       -2431.21735275 eV
  | XC energy correction          :         -16.38013420 Ha        -445.72612989 eV
  | XC potential correction       :          21.04661370 Ha         572.70749785 eV
  | Free-atom electrostatic energy:         -71.89305466 Ha       -1956.30955312 eV
  | Hartree energy correction     :           6.90064973 Ha         187.77623306 eV
  | Entropy correction            :           0.00000000 Ha           0.00000000 eV
  | ---------------------------
  | Total energy                  :        -149.67152093 Ha       -4072.76930485 eV
  | Total energy, T -> 0          :        -149.67152093 Ha       -4072.76930485 eV  <-- do not rely on this value for anything but (periodic) metals
  | Electronic free energy        :        -149.67152093 Ha       -4072.76930485 eV

  Derived energy quantities:
  | Kinetic energy                :         149.28510372 Ha        4062.25435748 eV
  | Electrostatic energy          :        -282.57649046 Ha       -7689.29753244 eV
  | Energy correction for multipole
  | error in Hartree potential    :          -0.00062855 Ha          -0.01710383 eV
  | Sum of eigenvalues per atom                           :       -1215.60867638 eV
  | Total energy (T->0) per atom                          :       -2036.38465242 eV  <-- do not rely on this value for anything but (periodic) metals
  | Electronic free energy per atom                       :       -2036.38465242 eV

  Self-consistency convergence accuracy:
  | Change of charge density      :  0.4111E+00
  | Change of sum of eigenvalues  : -0.9616E-01 eV
  | Change of total energy        :  0.1758E+00 eV

  End self-consistency iteration #    11       :  max(cpu_time)    wall_clock(cpu1)
  | Time for this iteration                    :        0.110 s           0.109 s
  | Charge density update                      :        0.029 s           0.029 s
  | Density mixing                             :        0.004 s           0.004 s
  | Hartree multipole update                   :        0.004 s           0.004 s
  | Hartree multipole summation                :        0.026 s           0.026 s
  | Integration                                :        0.044 s           0.044 s
  | Solution of K.-S. eqns.                    :        0.001 s           0.001 s
  | Total energy evaluation                    :        0.000 s           0.001 s
------------------------------------------------------------

------------------------------------------------------------
          Begin self-consistency iteration #   12

  Date     :  20190722, Time     :  142434.991
------------------------------------------------------------
  Evaluating new KS density.
  Integration grid: deviation in total charge (<rho> - N_e) =   7.548877E-10
  Pulay mixing of updated and previous charge densities.

  Evaluating partitioned Hartree potential by multipole expansion.
  | Analytical far-field extrapolation by fixed multipoles:
  | Hartree multipole sum: apparent total charge =   0.999999E+00
  Summing up the Hartree potential.
  Time summed over all CPUs for potential: real work        0.101 s, elapsed        0.101 s
  | RMS charge density error from multipole expansion :   0.427552E-03

  Integrating Hamiltonian matrix: batch-based integration.
  Time summed over all CPUs for integration: real work        0.167 s, elapsed        0.169 s

  Updating Kohn-Sham eigenvalues, eigenvectors, occupation numbers, and Fermi level.
  Solving generalized eigenproblem
  Updating Kohn-Sham eigenvalues and eigenfunctions.
  Solving real generalised eigenvalue problem by standard LAPACK (fast)
 BIG  0.997988712109985     
 FORCED TO: now -- previous           6           6           6           6
  Determining occupation numbers for Kohn-Sham eigenstates.
  | Chemical potential (Fermi level) in eV                 : -.1801E+02
  | Error in electron count due to remaining E_F inaccuracy: -.1634E-12

  Highest occupied state (VBM) at    -18.01718806 eV
  | Occupation number:      1.34548514

  Lowest unoccupied state (CBM) at   -18.00395623 eV
  | Occupation number:      0.15451486

  Overall HOMO-LUMO gap:      0.01323183 eV.

  Total energy components:
  | Sum of eigenvalues            :         -89.34714306 Ha       -2431.25946371 eV
[...]
  | Electronic free energy        :        -149.65545301 Ha       -4072.33207438 eV

  Derived energy quantities:
  | Kinetic energy                :         149.44226390 Ha        4066.53090350 eV
  | Electrostatic energy          :        -282.71085258 Ha       -7692.95371195 eV
  | Energy correction for multipole
  | error in Hartree potential    :          -0.00066685 Ha          -0.01814605 eV
  | Sum of eigenvalues per atom                           :       -1215.69480082 eV
  | Total energy (T->0) per atom                          :       -2036.16603719 eV  <-- do not rely on this value for anything but (periodic) metals
  | Electronic free energy per atom                       :       -2036.16603719 eV

  Self-consistency convergence accuracy:
  | Change of charge density      :  0.4228E+00
  | Change of sum of eigenvalues  :  0.1384E+00 eV
  | Change of total energy        :  0.3920E+00 eV

  End self-consistency iteration #    97       :  max(cpu_time)    wall_clock(cpu1)
  | Time for this iteration                    :        0.107 s           0.107 s
  | Charge density update                      :        0.029 s           0.029 s
  | Density mixing                             :        0.003 s           0.003 s
  | Hartree multipole update                   :        0.004 s           0.004 s
  | Hartree multipole summation                :        0.027 s           0.026 s
  | Integration                                :        0.043 s           0.042 s
  | Solution of K.-S. eqns.                    :        0.001 s           0.002 s
  | Total energy evaluation                    :        0.000 s           0.000 s
------------------------------------------------------------

------------------------------------------------------------
          Begin self-consistency iteration #   98

  Date     :  20190722, Time     :  142444.324
------------------------------------------------------------
  Evaluating new KS density.
  Integration grid: deviation in total charge (<rho> - N_e) =  -4.352074E-12
  Pulay mixing of updated and previous charge densities.

  Evaluating partitioned Hartree potential by multipole expansion.
  | Analytical far-field extrapolation by fixed multipoles:
  | Hartree multipole sum: apparent total charge =   0.999999E+00
  Summing up the Hartree potential.
  Time summed over all CPUs for potential: real work        0.101 s, elapsed        0.102 s
  | RMS charge density error from multipole expansion :   0.407133E-03

  Integrating Hamiltonian matrix: batch-based integration.
  Time summed over all CPUs for integration: real work        0.167 s, elapsed        0.169 s

  Updating Kohn-Sham eigenvalues, eigenvectors, occupation numbers, and Fermi level.
  Solving generalized eigenproblem
  Updating Kohn-Sham eigenvalues and eigenfunctions.
  Solving real generalised eigenvalue problem by standard LAPACK (fast)
 BIG  0.986657577372312     
 FORCED TO: now -- previous           6           6           7           7
  Determining occupation numbers for Kohn-Sham eigenstates.
  | Chemical potential (Fermi level) in eV                 : -.1806E+02
  | Error in electron count due to remaining E_F inaccuracy: -.5272E-08

  Highest occupied state (VBM) at    -18.06073276 eV
  | Occupation number:      1.49580966

  Lowest unoccupied state (CBM) at   -18.03576216 eV
  | Occupation number:      0.00419034

  Overall HOMO-LUMO gap:      0.02497061 eV.

  Total energy components:
  | Sum of eigenvalues            :         -89.35235144 Ha       -2431.40119107 eV
  | XC energy correction          :         -16.38677110 Ha        -445.90672923 eV
  | XC potential correction       :          21.05517448 Ha         572.94044850 eV
  | Free-atom electrostatic energy:         -71.89305466 Ha       -1956.30955312 eV
  | Hartree energy correction     :           6.92245701 Ha         188.36963948 eV
  | Entropy correction            :           0.00000000 Ha           0.00000000 eV
  | ---------------------------
  | Total energy                  :        -149.65454571 Ha       -4072.30738543 eV
  | Total energy, T -> 0          :        -149.65454571 Ha       -4072.30738543 eV  <-- do not rely on this value for anything but (periodic) metals
  | Electronic free energy        :        -149.65454571 Ha       -4072.30738543 eV

  Derived energy quantities:
  | Kinetic energy                :         149.44172118 Ha        4066.51613539 eV
  | Electrostatic energy          :        -282.70949578 Ha       -7692.91679160 eV
  | Energy correction for multipole
  | error in Hartree potential    :          -0.00066676 Ha          -0.01814348 eV
  | Sum of eigenvalues per atom                           :       -1215.70059554 eV
  | Total energy (T->0) per atom                          :       -2036.15369272 eV  <-- do not rely on this value for anything but (periodic) metals
  | Electronic free energy per atom                       :       -2036.15369272 eV

  Self-consistency convergence accuracy:
  | Change of charge density      :  0.3232E+00
  | Change of sum of eigenvalues  : -0.1159E-01 eV
  | Change of total energy        :  0.2469E-01 eV

  End self-consistency iteration #    98       :  max(cpu_time)    wall_clock(cpu1)
  | Time for this iteration                    :        0.109 s           0.109 s
  | Charge density update                      :        0.030 s           0.030 s
  | Density mixing                             :        0.003 s           0.004 s
  | Hartree multipole update                   :        0.005 s           0.004 s
  | Hartree multipole summation                :        0.026 s           0.026 s
  | Integration                                :        0.043 s           0.043 s
  | Solution of K.-S. eqns.                    :        0.001 s           0.001 s
  | Total energy evaluation                    :        0.000 s           0.001 s
------------------------------------------------------------

------------------------------------------------------------
          Begin self-consistency iteration #   99

  Date     :  20190722, Time     :  142444.433
------------------------------------------------------------
  Evaluating new KS density.
  Integration grid: deviation in total charge (<rho> - N_e) =  -5.271623E-09
  Pulay mixing of updated and previous charge densities.

  Evaluating partitioned Hartree potential by multipole expansion.
  | Analytical far-field extrapolation by fixed multipoles:
  | Hartree multipole sum: apparent total charge =   0.999999E+00
  Summing up the Hartree potential.
  Time summed over all CPUs for potential: real work        0.102 s, elapsed        0.103 s
  | RMS charge density error from multipole expansion :   0.396071E-03

  Integrating Hamiltonian matrix: batch-based integration.
  Time summed over all CPUs for integration: real work        0.167 s, elapsed        0.169 s

  Updating Kohn-Sham eigenvalues, eigenvectors, occupation numbers, and Fermi level.
  Solving generalized eigenproblem
  Updating Kohn-Sham eigenvalues and eigenfunctions.
  Solving real generalised eigenvalue problem by standard LAPACK (fast)
 BIG  0.956081899541810     
 FORCED TO: now -- previous           7           7           6           6
  Determining occupation numbers for Kohn-Sham eigenstates.
  | Chemical potential (Fermi level) in eV                 : -.1805E+02
  | Error in electron count due to remaining E_F inaccuracy: -.4279E-09

  Highest occupied state (VBM) at    -18.05662619 eV
  | Occupation number:      1.44839297

  Lowest unoccupied state (CBM) at   -18.03865330 eV
  | Occupation number:      0.05160703

  Overall HOMO-LUMO gap:      0.01797289 eV.

  Total energy components:
  | Sum of eigenvalues            :         -89.35248106 Ha       -2431.40471810 eV
  | XC energy correction          :         -16.38655031 Ha        -445.90072112 eV
  | XC potential correction       :          21.05490464 Ha         572.93310570 eV
  | Free-atom electrostatic energy:         -71.89305466 Ha       -1956.30955312 eV
  | Hartree energy correction     :           6.92243958 Ha         188.36916513 eV
  | Entropy correction            :           0.00000000 Ha           0.00000000 eV
  | ---------------------------
  | Total energy                  :        -149.65474181 Ha       -4072.31272151 eV
  | Total energy, T -> 0          :        -149.65474181 Ha       -4072.31272151 eV  <-- do not rely on this value for anything but (periodic) metals
  | Electronic free energy        :        -149.65474181 Ha       -4072.31272151 eV

  Derived energy quantities:
  | Kinetic energy                :         149.43882731 Ha        4066.43738920 eV
  | Electrostatic energy          :        -282.70701881 Ha       -7692.84938958 eV
  | Energy correction for multipole
  | error in Hartree potential    :          -0.00066237 Ha          -0.01802403 eV
  | Sum of eigenvalues per atom                           :       -1215.70235905 eV
  | Total energy (T->0) per atom                          :       -2036.15636076 eV  <-- do not rely on this value for anything but (periodic) metals
  | Electronic free energy per atom                       :       -2036.15636076 eV

  Self-consistency convergence accuracy:
  | Change of charge density      :  0.1986E+00
  | Change of sum of eigenvalues  : -0.3527E-02 eV
  | Change of total energy        : -0.5336E-02 eV

  Reaching maximum number of scf iterations (no convergence).
  Switching on the force computation anyway.

  End self-consistency iteration #    99       :  max(cpu_time)    wall_clock(cpu1)
  | Time for this iteration                    :        0.109 s           0.110 s
  | Charge density & force component update    :        0.030 s           0.030 s
  | Density mixing                             :        0.004 s           0.004 s
  | Hartree multipole update                   :        0.005 s           0.004 s
  | Hartree multipole summation                :        0.026 s           0.026 s
  | Integration                                :        0.043 s           0.043 s
  | Solution of K.-S. eqns.                    :        0.001 s           0.001 s
  | Total energy evaluation                    :        0.000 s           0.000 s
------------------------------------------------------------

------------------------------------------------------------
          Begin self-consistency iteration #  100

  Date     :  20190722, Time     :  142444.543
------------------------------------------------------------
  Evaluating new KS density and force components.
  Integration grid: deviation in total charge (<rho> - N_e) =  -4.279599E-10
  Pulay mixing of updated and previous charge densities.

  Evaluating partitioned Hartree potential by multipole expansion.
  | Analytical far-field extrapolation by fixed multipoles:
  | Hartree multipole sum: apparent total charge =   0.999999E+00
  Summing up the Hartree potential.
  Time summed over all CPUs for potential: real work        0.477 s, elapsed        0.480 s
  | RMS charge density error from multipole expansion :   0.396767E-03

  Integrating Hamiltonian matrix: batch-based integration.
  Time summed over all CPUs for integration: real work        0.171 s, elapsed        0.173 s

  Updating Kohn-Sham eigenvalues, eigenvectors, occupation numbers, and Fermi level.
  Solving generalized eigenproblem
  Updating Kohn-Sham eigenvalues and eigenfunctions.
  Solving real generalised eigenvalue problem by standard LAPACK (fast)
 BIG  0.970456022663964     
 FORCED TO: now -- previous           7           7           7           7
  Determining occupation numbers for Kohn-Sham eigenstates.
  | Chemical potential (Fermi level) in eV                 : -.1808E+02
  | Error in electron count due to remaining E_F inaccuracy: 0.9086E-08

  Highest occupied state (VBM) at    -18.08845666 eV
  | Occupation number:      1.50000001

  Lowest unoccupied state (CBM) at   -18.00050166 eV
  | Occupation number:      0.00000000

  Overall HOMO-LUMO gap:      0.08795500 eV.

  Total energy components:
  | Sum of eigenvalues            :         -89.35286287 Ha       -2431.41510766 eV
  | XC energy correction          :         -16.38688623 Ha        -445.90986204 eV
  | XC potential correction       :          21.05534307 Ha         572.94503593 eV
  | Free-atom electrostatic energy:         -71.89305466 Ha       -1956.30955312 eV
  | Hartree energy correction     :           6.91994749 Ha         188.30135194 eV
  | Entropy correction            :           0.00000000 Ha           0.00000000 eV
  | ---------------------------
  | Total energy                  :        -149.65751320 Ha       -4072.38813494 eV
  | Total energy, T -> 0          :        -149.65751320 Ha       -4072.38813494 eV  <-- do not rely on this value for anything but (periodic) metals
  | Electronic free energy        :        -149.65751320 Ha       -4072.38813494 eV

  Derived energy quantities:
  | Kinetic energy                :         149.43742044 Ha        4066.39910623 eV
  | Electrostatic energy          :        -282.70804740 Ha       -7692.87737913 eV
  | Energy correction for multipole
  | error in Hartree potential    :          -0.00066013 Ha          -0.01796313 eV
  | Sum of eigenvalues per atom                           :       -1215.70755383 eV
  | Total energy (T->0) per atom                          :       -2036.19406747 eV  <-- do not rely on this value for anything but (periodic) metals
  | Electronic free energy per atom                       :       -2036.19406747 eV

  atomic forces [eV/Ang]:
  -----------------------
  atom #    1
   Hellmann-Feynman              : -0.394244E-02  0.449086E-01 -0.205784E+02
   Ionic forces                  :  0.000000E+00  0.000000E+00  0.000000E+00
   Multipole                     : -0.362384E-05  0.405805E-04 -0.392320E-01
   Pulay + GGA                   :  0.634201E-02 -0.146722E-01  0.181128E+02
   ----------------------------------------------------------------
   Total forces(   1)            :  0.239594E-02  0.302770E-01 -0.250485E+01
  atom #    2
   Hellmann-Feynman              : -0.394244E-02  0.449086E-01  0.205784E+02
   Ionic forces                  :  0.000000E+00  0.000000E+00  0.000000E+00
   Multipole                     : -0.362384E-05  0.405805E-04  0.392320E-01
   Pulay + GGA                   :  0.634200E-02 -0.146722E-01 -0.181128E+02
   ----------------------------------------------------------------
   Total forces(   2)            :  0.239594E-02  0.302770E-01  0.250485E+01


  Self-consistency convergence accuracy:
  | Change of charge density      :  0.3029E+00
  | Change of sum of eigenvalues  : -0.1039E-01 eV
  | Change of total energy        : -0.7541E-01 eV
  | Change of forces              :  0.2062E+02 eV/A

  End self-consistency iteration #   100       :  max(cpu_time)    wall_clock(cpu1)
  | Time for this iteration                    :        0.233 s           0.324 s
  | Charge density & force component update    :        0.103 s           0.130 s
  | Density mixing                             :        0.003 s           0.003 s
  | Hartree multipole update                   :        0.004 s           0.004 s
  | Hartree multipole summation                :        0.073 s           0.123 s
  | Integration                                :        0.044 s           0.044 s
  | Solution of K.-S. eqns.                    :        0.005 s           0.005 s
  | Total energy evaluation                    :        0.002 s           0.013 s
------------------------------------------------------------
  Writing cluster restart information to file restart
  Removing unitary transformations (pure translations, rotations) from forces on atoms.
  Atomic forces before filtering:
  | Net force on center of mass :   0.479188E-02  0.605539E-01  0.532497E-09 eV/A
  | Net torque on center of mass:   0.304590E-09 -0.258334E-09  0.000000E+00 eV
  Atomic forces after filtering:
  | Net force on center of mass :   0.696899E-18  0.111504E-16  0.000000E+00 eV/A
  | Net torque on center of mass:   0.000000E+00 -0.420753E-18  0.000000E+00 eV

  Energy and forces in a compact form:
  | Total energy uncorrected      :         -0.407238813494412E+04 eV
  | Total energy corrected        :         -0.407238813494412E+04 eV  <-- do not rely on this value for anything but (periodic) metals
  | Electronic free energy        :         -0.407238813494412E+04 eV
  Total atomic forces (unitary forces cleaned) [eV/Ang]:
  |   1          0.696898922367575E-18          0.557519137894060E-17         -0.250485286021009E+01
  |   2          0.000000000000000E+00          0.557519137894060E-17          0.250485286021009E+01

  ------------------------------------ 
  Start decomposition of the XC Energy 
  ------------------------------------ 
  Hartree-Fock part   :          0.000000000 Ha              0.000000000 eV
  ------------------------------------ 
  X Energy            :        -15.890692475 Ha           -432.407742921 eV
  C Energy GGA        :         -0.496193757 Ha            -13.502119117 eV
  Total XC Energy     :        -16.386886233 Ha           -445.909862038 eV
  LDA X and C from self-consistent density 
  X Energy LDA        :        -14.398365918 Ha           -391.799471178 eV
  C Energy LDA        :         -1.058297861 Ha            -28.797750001 eV
  ------------------------------------ 
  End decomposition of the XC Energy 
  ------------------------------------ 

 ***********************************************************
 *
 * WARNING! SELF-CONSISTENCY CYCLE DID NOT CONVERGE
 * USING YOUR PRESELECTED ACCURACY CRITERIA.
 * DO NOT RELY ON ANY FINAL DATA WITHOUT FURTHER CHECKS.
 *
 ***********************************************************
 * NO POSTPROCESSING WILL BE DONE
 * IF YOU WANT POSTPROCESSING ANYWAY, SET postprocess_anyway TO .true.
 ***********************************************************

   One or more s.c.f. cycles took more than 50 s.c.f. iterations.
   It might be worth adjusting your convergence settings. For example,
   metals need a larger broadening and a smaller "charge_mix_param" value than semiconductors.

------------------------------------------------------------
          Leaving FHI-aims.
          Date     :  20190722, Time     :  142445.020

          Computational steps:
          | Number of self-consistency cycles          :          100
          | Number of relaxation steps                 :            0

          Detailed time accounting                     :  max(cpu_time)    wall_clock(cpu1)
          | Total time                                 :       11.477 s          14.695 s
          | Preparation time                           :        0.168 s           0.665 s
          | Grid partitioning                          :        0.025 s           0.383 s
          | Preloading free-atom quantities on grid    :        0.018 s           0.018 s
          | Free-atom superposition energy             :        0.010 s           0.022 s
          | Total time for integrations                :        4.450 s           4.553 s
          | Total time for solution of K.-S. equations :        0.160 s           0.881 s
          | Total time for EV reorthonormalization     :        0.000 s           0.000 s
          | Total time for density & force components  :        3.003 s           3.127 s
          | Total time for mixing                      :        0.304 s           0.395 s
          | Total time for Hartree multipole update    :        0.483 s           0.455 s
          | Total time for Hartree multipole sum       :        2.713 s           2.821 s
          | Total time for total energy evaluation     :        0.018 s           0.121 s

------------------------------------------------------------
 *** scf_solver: SCF cycle not converged.
 *** scf_solver: SCF cycle not converged.
