  MPI-parallelism will be employed.
------------------------------------------------------------
          Invoking FHI-aims ...
          Version 160328_3
          Compiled on 2019/06/10 at 14:55:49 on host taito-login3.csc.fi.

          When using FHI-aims, please cite the following reference:

          Volker Blum, Ralf Gehrke, Felix Hanke, Paula Havu,
          Ville Havu, Xinguo Ren, Karsten Reuter, and Matthias Scheffler,
          'Ab Initio Molecular Simulations with Numeric Atom-Centered Orbitals',
          Computer Physics Communications 180, 2175-2196 (2009)

          For any questions about FHI-aims, please visit the aimsclub website
          with its forums and wiki. Contributions to both the forums and the
          wiki are warmly encouraged - they are for you, and everyone is welcome there.

------------------------------------------------------------

  Date     :  20190722, Time     :  143622.067
  Time zero on CPU 1             :   0.689880000000000E-01  s.
  Internal wall clock time zero  :           333038182.067  s.

  Using        8 parallel tasks.
  Task        0 on host c674 reporting.
  Task        1 on host c674 reporting.
  Task        2 on host c674 reporting.
  Task        3 on host c674 reporting.
  Task        4 on host c674 reporting.
  Task        5 on host c674 reporting.
  Task        6 on host c674 reporting.
  Task        7 on host c674 reporting.

  Performing system and environment tests:
  | Environment variable OMP_NUM_THREADS correctly set to 1.
  | Maximum stacksize for task 0: unlimited
  | Maximum stacksize for task 1: unlimited
  | Maximum stacksize for task 2: unlimited
  | Maximum stacksize for task 3: unlimited
  | Maximum stacksize for task 4: unlimited
  | Maximum stacksize for task 5: unlimited
  | Maximum stacksize for task 6: unlimited
  | Maximum stacksize for task 7: unlimited
  | Current stacksize for task 0: 1024 [Mb]
  | Current stacksize for task 1: 1024 [Mb]
  | Current stacksize for task 2: 1024 [Mb]
  | Current stacksize for task 3: 1024 [Mb]
  | Current stacksize for task 4: 1024 [Mb]
  | Current stacksize for task 5: 1024 [Mb]
  | Current stacksize for task 6: 1024 [Mb]
  | Current stacksize for task 7: 1024 [Mb]
  | Checking for scalapack...
  | No scalapack compiled in.

  Obtaining array dimensions for all initial allocations:
  
  -----------------------------------------------------------------------
  Parsing control.in (first pass over file, find array dimensions only).
  The contents of control.in will be repeated verbatim below
  unless switched off by setting 'verbatim_writeout .false.' .
  in the first line of control.in .
  -----------------------------------------------------------------------
  
    #  Physical model settings
    #
  
    xc                            pbe
    charge                        0.0
    relativistic                  none
  #  default_initial_moment        0.0
    spin                          none
  #  vdw_correction_hirshfeld
  
    #  SCF convergence settings
    #
  
    sc_accuracy_rho               1E-4
    sc_accuracy_eev               1E-2
    sc_accuracy_etot              1E-8
    sc_iter_limit                 100
  
    #  Occupation settings
    #
  
    restart                       restart
  #  force_occupation_projector      21 1 1.0 20 21 # ion 0
  #  force_occupation_projector      20 1 1.0 20 21 # ion 1
  #  force_occupation_projector      19 1 1.0 18 19 # ion 2
  #  force_occupation_projector      18 1 1.0 18 19 # ion 3
  #  force_occupation_projector      17 1 1.0 17 17 # ion 4
  
    #  Relaxation
    #
  
    ############relax_geometry                bfgs    1.e-4
  
  
  ################################################################################
  #
  #  FHI-aims code project
  #  VB, Fritz-Haber Institut, 2007
  #
  #  Suggested "safe" defaults for O atom (to be pasted into control.in file)
  #
  ################################################################################
    species        O
  #     global species definitions
      nucleus             8
      mass                15.9994
  #
      l_hartree           8
  #
      cut_pot             4.0  2.0  1.0
      basis_dep_cutoff    0.d0
  #
      radial_base         36 7.0
      radial_multiplier   2
       angular_grids specified
        division   0.4087  110
        division   0.5181  194
        division   0.6184  302
        division   0.7315  434
        division   0.7934  590
  #      division   0.9656  770
  #      division   1.4041  974
  #      outer_grid 974
        outer_grid 590
  ################################################################################
  #
  #  Definition of "minimal" basis
  #
  ################################################################################
  #     valence basis states
      valence      2  s   2.
      valence      2  p   4.
  #     ion occupancy
      ion_occ      2  s   1.
      ion_occ      2  p   3.
  ################################################################################
  #
  #  Suggested additional basis functions. For production calculations,
  #  uncomment them one after another (the most important basis functions are
  #  listed first).
  #
  #  Constructed for dimers: 1.0 A, 1.208 A, 1.5 A, 2.0 A, 3.0 A
  #
  ################################################################################
  #  "First tier" - improvements: -699.05 meV to -159.38 meV
       hydro 2 p 1.8
       hydro 3 d 7.6
       hydro 3 s 6.4
  #  "Second tier" - improvements: -49.91 meV to -5.39 meV
       hydro 4 f 11.6
       hydro 3 p 6.2
       hydro 3 d 5.6
       hydro 5 g 17.6
       hydro 1 s 0.75
  #  "Third tier" - improvements: -2.83 meV to -0.50 meV
  #     ionic 2 p auto
  #     hydro 4 f 10.8
  #     hydro 4 d 4.7
  #     hydro 2 s 6.8
  #  "Fourth tier" - improvements: -0.40 meV to -0.12 meV
  #     hydro 3 p 5
  #     hydro 3 s 3.3
  #     hydro 5 g 15.6
  #     hydro 4 f 17.6
  #     hydro 4 d 14
  # Further basis functions - -0.08 meV and below
  #     hydro 3 s 2.1
  #     hydro 4 d 11.6
  #     hydro 3 p 16
  #     hydro 2 s 17.2
  compute_forces .true.
  final_forces_cleaned .true.
  output dipole
  
  -----------------------------------------------------------------------
  Completed first pass over input file control.in .
  -----------------------------------------------------------------------
  
  
  -----------------------------------------------------------------------
  Parsing geometry.in (first pass over file, find array dimensions only).
  The contents of geometry.in will be repeated verbatim below
  unless switched off by setting 'verbatim_writeout .false.' .
  in the first line of geometry.in .
  -----------------------------------------------------------------------
  
  #
  # temporary structure-file for finite-difference calculation of forces
  # displacement   0.0025 of \# atom     1 direction     2
  #
  atom   -0.00000000   -0.00000000    0.04235921   O
  atom    0.00000000    0.00000000    1.16764079   O
  
  -----------------------------------------------------------------------
  Completed first pass over input file geometry.in .
  -----------------------------------------------------------------------
  

  Basic array size parameters:
  | Number of species                 :        1
  | Number of atoms                   :        2
  | Max. basis fn. angular momentum   :        4
  | Max. atomic/ionic basis occupied n:        2
  | Max. number of basis fn. types    :        2
  | Max. radial fns per species/type  :        8
  | Max. logarithmic grid size        :     1301
  | Max. radial integration grid size :       73
  | Max. angular integration grid size:      590
  | Max. angular grid division number :        8
  | Radial grid for Hartree potential :     1301
  | Number of spin channels           :        1

------------------------------------------------------------
          Reading file control.in.
------------------------------------------------------------
  XC: Using PBE gradient-corrected functionals.
  Charge =   0.000000E+00: Neutral system requested explicitly.
  Non-relativistic treatment of kinetic energy.
  Spin treatment: No spin polarisation.
  Convergence accuracy of self-consistent charge density:  0.1000E-03
  Convergence accuracy of sum of eigenvalues:  0.1000E-01
  Convergence accuracy of total energy:  0.1000E-07
  Maximum number of s.-c. iterations  :   100
  Restart file specified as : restart
  | This file does not exist, will create it after the first complete scf cycle.
 
  Reading configuration options for species O                   .
  | Found nuclear charge :   8.0000
  | Found atomic mass :    15.9994000000000      amu
  | Found l_max for Hartree potential  :   8
  | Found cutoff potl. onset [A], width [A], scale factor :    4.00000    2.00000    1.00000
  | Threshold for basis-dependent cutoff potential is   0.000000E+00
  | Found data for basic radial integration grid :    36 points, outermost radius =    7.000 A
  | Found multiplier for basic radial grid :   2
  | Found angular grid specification: user-specified.
  | Specified grid contains     6 separate shells.
  | Check grid settings after all constraints further below.
  | Found free-atom valence shell :  2 s   2.000
  | Found free-atom valence shell :  2 p   4.000
  | No ionic wave fns used. Skipping ion_occ.
  | No ionic wave fns used. Skipping ion_occ.
  | Found hydrogenic basis function :  2 p   1.800
  | Found hydrogenic basis function :  3 d   7.600
  | Found hydrogenic basis function :  3 s   6.400
  | Found hydrogenic basis function :  4 f  11.600
  | Found hydrogenic basis function :  3 p   6.200
  | Found hydrogenic basis function :  3 d   5.600
  | Found hydrogenic basis function :  5 g  17.600
  | Found hydrogenic basis function :  1 s   0.750
  Species O                   : Missing cutoff potential type.
  Defaulting to exp(1/x)/(1-x)^2 type cutoff potential.
  Species O : No 'logarithmic' tag. Using default grid for free atom:
  | Default logarithmic grid data [bohr] : 0.1000E-03 0.1000E+03 0.1012E+01
  Species O : On-site basis accuracy parameter (for Gram-Schmidt orthonormalisation) not specified.
  Using default value basis_acc =  0.1000000E-03.
  Species O                   : Using default innermost maximum threshold i_radial=  2 for radial functions.
  Species O                   : Default cutoff onset for free atom density etc. : 0.40000000E+01 AA.
  Species O                   : Basic radial grid will be enhanced according to radial_multiplier =   2, to contain    73 grid points.
  Forces will be computed.
  Cleaning forces before final output.
  Dipole moment will be written out.
 
  Finished reading input file 'control.in'. Consistency checks are next.
 
  Target number of points in a grid batch is not set. Defaulting to  100
  Method for grid partitioning is not set. Defaulting to parallel hash+maxmin partitioning.
  Batch size limit is not set. Defaulting to    200
  By default, will store active basis functions for each batch.
  If in need of memory, prune_basis_once .false. can be used to disable this option.
  communication_type for Hartree potential was not specified.
  Defaulting to calc_hartree .
  Defaulting to Pulay charge density mixer.
  Pulay mixer: Number of relevant iterations not set.
  Defaulting to    8 iterations.
  Pulay mixer: Number of initial linear mixing iterations not set.
  Defaulting to    0 iterations.
  Work space size for distributed Hartree potential not set.
  Defaulting to   0.200000E+03 MB.
  Mixing parameter for charge density mixing has not been set.
  Using default: charge_mix_param =     0.2000.
  Algorithm-dependent basis array size parameters:
  | n_max_pulay                         :        8
  Geometry relaxation not requested: no relaxation will be performed.
  Force calculation: scf convergence accuracy of forces not set.
  Defaulting to  0.1000E-03 eV/A.
  Handling of forces: Unphysical translation and rotation will be removed from forces.
  No accuracy limit for integral partition fn. given. Defaulting to  0.1000E-14.
  No threshold value for u(r) in integrations given. Defaulting to  0.1000E-05.
  No occupation type (smearing scheme) given. Defaulting to Gaussian broadening, width =  0.1000E-01 eV.
  No accuracy for occupation numbers given. Defaulting to  0.1000E-07.
  No threshold value for occupation numbers given. Defaulting to  0.0000E+00.
  No accuracy for fermi level given. Defaulting to  0.1000E-19.
  Maximum # of iterations to find E_F not set. Defaulting to  200.
  Preferred method for the eigenvalue solver ('KS_method') not specified in 'control.in'.
  Calling blacs routine to test compilation state
  The best choice would be 'elpa', but your version of FHI-aims is compiled without scalapack support.
  Defaulting to 'lapack_fast' instead (serial solution, time will not improve with more CPUs).
  Will not use alltoall communication since running on < 1024 CPUs.
  Threshold for basis singularities not set.
  Default threshold for basis singularities:  0.1000E-04
  partition_type (choice of integration weights) for integrals was not specified.
  | Using a version of the partition function of Stratmann and coworkers ('stratmann_smoother').
  | At each grid point, the set of atoms used to build the partition table is smoothly restricted to
  | only those atoms whose free-atom density would be non-zero at that grid point.
  Partitioning for Hartree potential was not defined. Using partition_type for integrals.
  | Adjusted default value of keyword multip_moments_threshold to:       0.10000000E-11
  | This value may affect high angular momentum components of the Hartree potential in periodic systems.
  No q(lm)/r^(l+1) cutoff set for long-range Hartree potential.
  | Using default value of  0.100000E-09 .
  | Verify using the multipole_threshold keyword.
  Defaulting to new monopole extrapolation.
  Density update method: automatic selection selected.
------------------------------------------------------------


------------------------------------------------------------
          Reading geometry description geometry.in.
------------------------------------------------------------
  Input structure read successfully.
  The structure contains        2 atoms,  and a total of         16.000 electrons.

  Input geometry:
  | No unit cell requested.
  | Atomic structure:
  |       Atom                x [A]            y [A]            z [A]
  |    1: Species O              0.000000         0.000000         0.042359
  |    2: Species O              0.000000         0.000000         1.167641
  |

  | The smallest distance between any two atoms is         1.12528158 AA.
  |
  | The first atom of this pair is atom number                      1 .
  | The second atom of this pair is atom number                     2 .

  Number of empty states per atom not set in control.in - providing a guess from actual geometry.
  | Total number of empty states used during s.c.f. cycle:        6
  If you use a very high smearing, use empty_states (per atom!) in control.in to increase this value.

  Structure-dependent array size parameters: 
  | Maximum number of distinct radial functions  :       11
  | Maximum number of basis functions            :       78
  | Number of Kohn-Sham states (occupied + empty):       14
------------------------------------------------------------

------------------------------------------------------------
          Preparing all fixed parts of the calculation.
------------------------------------------------------------
  Determining machine precision:
    2.225073858507201E-308
  Setting up grids for atomic and cluster calculations.

  Creating wave function, potential, and density for free atoms.

  Species: O

  List of occupied orbitals and eigenvalues:
    n    l              occ      energy [Ha]    energy [eV]
    1    0           2.0000       -18.898576      -514.2564
    2    0           2.0000        -0.878795       -23.9132
    2    1           4.0000        -0.332075        -9.0362

  Creating fixed part of basis set: Ionic, confined, hydrogenic.
 
  O                    hydrogenic:
 
  List of hydrogenic basis orbitals: 
    n    l      effective z      eigenvalue [eV]  inner max. [A]     outer max. [A]     outer radius [A]   
    2    1         1.800000       -11.0118           1.178562           1.178562           5.432602
    3    2         7.600000       -87.3183           0.624125           0.624125           4.634338
    3    0         6.400000       -61.9210           0.061167           1.081902           5.110480
    4    3        11.600000      -114.4239           0.731631           0.731631           4.522403
    3    1         6.200000       -58.1114           0.255680           1.030270           5.110480
    3    2         5.600000       -47.4083           0.847233           0.847233           5.173339
    5    4        17.600000      -168.5800           0.749740           0.749740           4.051222
    1    0         0.750000        -7.6499           0.705284           0.705284           5.366593
 

  Adding cutoff potential to free-atom effective potential.
  Creating atomic-like basis functions for current effective potential.

  Species O                   :

  List of atomic basis orbitals and eigenvalues:
    n    l      energy [Ha]    energy [eV]    outer radius [A]
    1    0       -18.898576      -514.2564       1.415765
    2    0        -0.878795       -23.9132       5.048385
    2    1        -0.332075        -9.0362       5.301386

  Assembling full basis from fixed parts.
  | Species O :   atomic orbital   1 s accepted.
  | Species O :   atomic orbital   2 s accepted.
  | Species O :    hydro orbital   3 s accepted.
  | Species O :    hydro orbital   1 s accepted.
  | Species O :   atomic orbital   2 p accepted.
  | Species O :    hydro orbital   2 p accepted.
  | Species O :    hydro orbital   3 p accepted.
  | Species O :    hydro orbital   3 d accepted.
  | Species O :    hydro orbital   3 d accepted.
  | Species O :    hydro orbital   4 f accepted.
  | Species O :    hydro orbital   5 g accepted.
 
  Basis size parameters after reduction:
  | Total number of radial functions:       11
  | Total number of basis functions :       78
 
  Testing on-site integration grid accuracy.
  |  Species  Function  <phi|h_atom|phi> (log., in eV)  <phi|h_atom|phi> (rad., in eV)
           1        1               -514.2564144315               -514.2564099626
           1        2                -23.9132357102                -23.9132356433
           1        3                 17.5398579759                 17.5398338425
           1        4                 14.5207278950                 14.5207740449
           1        5                 -9.0362392718                 -9.0362394845
           1        6                  7.9056275927                  7.9056237490
           1        7                 33.4201658992                 33.4201612015
           1        8                 45.8231952720                 45.8231953152
           1        9                 52.1937595491                 52.1937593440
           1       10                 85.4062894308                 85.4062894578
           1       11                142.0975701139                142.0975701391

  Preparing densities etc. for the partition functions (integrals / Hartree potential).

  Preparations completed.
  max(cpu_time)          :      0.149 s.
  Wall clock time (cpu1) :      0.166 s.
------------------------------------------------------------

------------------------------------------------------------
          Begin self-consistency loop: Initialization.

          Date     :  20190722, Time     :  143622.249
------------------------------------------------------------

  Initializing index lists of integration centers etc. from given atomic structure:
  | Number of centers in hartree potential         :         2
  | Number of centers in hartree multipole         :         2
  | Number of centers in electron density summation:         2
  | Number of centers in basis integrals           :         2
  | Number of centers in integrals                 :         2
  | Number of centers in hamiltonian               :         2
  Partitioning the integration grid into batches with parallel hashing+maxmin method.
  | Number of batches:      837
  | Maximal batch size:     118
  | Minimal batch size:      49
  | Average batch size:      63.632
  | Standard deviation of batch sizes:      18.259

  Integration load balanced across     8 MPI tasks.
  Work distribution over tasks is as follows:
  Task     0 has       6688 integration points.
  Task     1 has       6691 integration points.
  Task     2 has       6624 integration points.
  Task     3 has       6640 integration points.
  Task     4 has       6628 integration points.
  Task     5 has       6719 integration points.
  Task     6 has       6642 integration points.
  Task     7 has       6628 integration points.
  Initializing partition tables, free-atom densities, potentials, etc. across the integration grid (initialize_grid_storage).
  | initialize_grid_storage: Actual outermost partition radius vs. multipole_radius_free
  | (-- VB: in principle, multipole_radius_free should be larger, hence this output)
  | Species        1: Confinement radius =              6.000000000000000 AA, multipole_radius_free =              6.064445521808699 AA.
  | Species        1: outer_partition_radius set to              6.064445521808699 AA .
  | Original list of interatomic distances with           2 x          2 entries is created.
  | Net number of integration points:    53260
  | of which are non-zero points    :    50010
  Obtaining max. number of non-zero basis functions in each batch (get_n_compute_maxes).
  | Maximal number of non-zero basis functions:       78 in task     0
  | Maximal number of non-zero basis functions:       78 in task     1
  | Maximal number of non-zero basis functions:       78 in task     2
  | Maximal number of non-zero basis functions:       78 in task     3
  | Maximal number of non-zero basis functions:       78 in task     4
  | Maximal number of non-zero basis functions:       78 in task     5
  | Maximal number of non-zero basis functions:       78 in task     6
  | Maximal number of non-zero basis functions:       78 in task     7
  Selecting the method for density update.
  Loop over occupied states selected for charge density update.
  Integrating Hamiltonian matrix: batch-based integration.
  Time summed over all CPUs for integration: real work        0.174 s, elapsed        0.178 s
  Integrating overlap matrix.
  Time summed over all CPUs for integration: real work        0.063 s, elapsed        0.065 s

  Updating Kohn-Sham eigenvalues, eigenvectors, occupation numbers, and Fermi level.
  Solving generalized eigenproblem
  Updating Kohn-Sham eigenvalues and eigenfunctions.
  Transforming overlap matrix and checking for singularities.
  Overlap matrix is nonsingular:
  | Lowest eigenvalue:  0.187908E-03
  Solving real generalised eigenvalue problem by standard LAPACK (fast)
  Determining occupation numbers for Kohn-Sham eigenstates.
  | Chemical potential (Fermi level) in eV                 : -.60606581E+01
  | Error in electron count due to remaining E_F inaccuracy: 0.14624391E-09
  | Maximum occupation number of highest empty state:  0.00E+00

  Writing Kohn-Sham eigenvalues.

  State    Occupation    Eigenvalue [Ha]    Eigenvalue [eV]
      1       2.00000         -18.952492         -515.72355
      2       2.00000         -18.952282         -515.71783
      3       2.00000          -1.276154          -34.72591
      4       2.00000          -0.749652          -20.39908
      5       2.00000          -0.542383          -14.75900
      6       2.00000          -0.526145          -14.31713
      7       2.00000          -0.526145          -14.31713
      8       1.00000          -0.222725           -6.06066
      9       1.00000          -0.222725           -6.06066
     10       0.00000           0.089812            2.44392
     11       0.00000           0.095111            2.58810
     12       0.00000           0.127619            3.47268
     13       0.00000           0.127619            3.47268
     14       0.00000           0.202118            5.49990

  Highest occupied state (VBM) at     -6.06065810 eV
  | Occupation number:      1.00000000

  Lowest unoccupied state (CBM) at     2.44391994 eV
  | Occupation number:      0.00000000

  Overall HOMO-LUMO gap:      8.50457804 eV.
  Calculating total energy contributions from superposition of free atom densities.

  Total energy components:
  | Sum of eigenvalues            :         -83.49595633 Ha       -2272.04057188 eV
  | XC energy correction          :         -16.81893164 Ha        -457.66641563 eV
  | XC potential correction       :          21.62474860 Ha         588.43934876 eV
  | Free-atom electrostatic energy:         -71.52330919 Ha       -1946.24826722 eV
  | Hartree energy correction     :           0.00000000 Ha           0.00000000 eV
  | Entropy correction            :          -0.00020734 Ha          -0.00564190 eV
  | ---------------------------
  | Total energy                  :        -150.21344857 Ha       -4087.51590597 eV
  | Total energy, T -> 0          :        -150.21365590 Ha       -4087.52154787 eV  <-- do not rely on this value for anything but (periodic) metals
  | Electronic free energy        :        -150.21386324 Ha       -4087.52718976 eV

  Derived energy quantities:
  | Kinetic energy                :         149.91505967 Ha        4079.39633105 eV
  | Electrostatic energy          :        -283.30957660 Ha       -7709.24582139 eV
  | Energy correction for multipole
  | error in Hartree potential    :           0.00000000 Ha           0.00000000 eV
  | Sum of eigenvalues per atom                           :       -1136.02028594 eV
  | Total energy (T->0) per atom                          :       -2043.76077393 eV  <-- do not rely on this value for anything but (periodic) metals
  | Electronic free energy per atom                       :       -2043.76359488 eV
  Initialize hartree_potential_storage
  Max. number of atoms included in rho_multipole:            2

  End scf initialization - timings             :  max(cpu_time)    wall_clock(cpu1)
  | Time for scf. initialization               :        0.092 s           0.092 s
  | Boundary condition initialization          :        0.001 s           0.001 s
  | Integration                                :        0.032 s           0.031 s
  | Solution of K.-S. eqns.                    :        0.008 s           0.009 s
  | Grid partitioning                          :        0.018 s           0.018 s
  | Preloading free-atom quantities on grid    :        0.018 s           0.017 s
  | Free-atom superposition energy             :        0.005 s           0.004 s
  | Total energy evaluation                    :        0.002 s           0.001 s
------------------------------------------------------------

------------------------------------------------------------
          Begin self-consistency iteration #    1

  Date     :  20190722, Time     :  143622.342
------------------------------------------------------------
  Evaluating new KS density.
  Integration grid: deviation in total charge (<rho> - N_e) =   1.462404E-10
  Pulay mixing of updated and previous charge densities.

  Evaluating partitioned Hartree potential by multipole expansion.
  | Analytical far-field extrapolation by fixed multipoles:
  | Hartree multipole sum: apparent total charge =  -0.256863E-07
  Summing up the Hartree potential.
  Time summed over all CPUs for potential: real work        0.109 s, elapsed        0.112 s
  | RMS charge density error from multipole expansion :   0.118807E-03

  Integrating Hamiltonian matrix: batch-based integration.
  Time summed over all CPUs for integration: real work        0.167 s, elapsed        0.170 s

  Updating Kohn-Sham eigenvalues, eigenvectors, occupation numbers, and Fermi level.
  Solving generalized eigenproblem
  Updating Kohn-Sham eigenvalues and eigenfunctions.
  Solving real generalised eigenvalue problem by standard LAPACK (fast)
  Determining occupation numbers for Kohn-Sham eigenstates.
  | Chemical potential (Fermi level) in eV                 : -.56999380E+01
  | Error in electron count due to remaining E_F inaccuracy: -.50270899E-11
  | Maximum occupation number of highest empty state:  0.00E+00

  Writing Kohn-Sham eigenvalues.

  State    Occupation    Eigenvalue [Ha]    Eigenvalue [eV]
      1       2.00000         -18.925369         -514.98549
      2       2.00000         -18.925158         -514.97974
      3       2.00000          -1.269381          -34.54160
      4       2.00000          -0.732855          -19.94200
      5       2.00000          -0.525353          -14.29559
      6       2.00000          -0.516031          -14.04192
      7       2.00000          -0.516031          -14.04192
      8       1.00000          -0.209469           -5.69994
      9       1.00000          -0.209469           -5.69994
     10       0.00000           0.092749            2.52382
     11       0.00000           0.098475            2.67964
     12       0.00000           0.129557            3.52543
     13       0.00000           0.129557            3.52543
     14       0.00000           0.204501            5.56475

  Highest occupied state (VBM) at    -14.04191582 eV
  | Occupation number:      2.00000000

  Lowest unoccupied state (CBM) at    -5.69993802 eV
  | Occupation number:      1.00000000

  Overall HOMO-LUMO gap:      8.34197780 eV.

  Total energy components:
  | Sum of eigenvalues            :         -83.23929204 Ha       -2265.05638133 eV
  | XC energy correction          :         -16.85459798 Ha        -458.63694629 eV
  | XC potential correction       :          21.67123216 Ha         589.70423078 eV
  | Free-atom electrostatic energy:         -71.52330919 Ha       -1946.24826722 eV
  | Hartree energy correction     :          -0.26113875 Ha          -7.10594696 eV
  | Entropy correction            :          -0.00020734 Ha          -0.00564190 eV
  | ---------------------------
  | Total energy                  :        -150.20710582 Ha       -4087.34331101 eV
  | Total energy, T -> 0          :        -150.20731315 Ha       -4087.34895290 eV  <-- do not rely on this value for anything but (periodic) metals
  | Electronic free energy        :        -150.20752049 Ha       -4087.35459480 eV

  Derived energy quantities:
  | Kinetic energy                :         150.11614652 Ha        4084.86818248 eV
  | Electrostatic energy          :        -283.46865435 Ha       -7713.57454719 eV
  | Energy correction for multipole
  | error in Hartree potential    :          -0.00014987 Ha          -0.00407830 eV
  | Sum of eigenvalues per atom                           :       -1132.52819066 eV
  | Total energy (T->0) per atom                          :       -2043.67447645 eV  <-- do not rely on this value for anything but (periodic) metals
  | Electronic free energy per atom                       :       -2043.67729740 eV

  Self-consistency convergence accuracy:
  | Change of charge density      :  0.1773E+00
  | Change of sum of eigenvalues  :  0.6984E+01 eV
  | Change of total energy        :  0.1726E+00 eV

  End self-consistency iteration #     1       :  max(cpu_time)    wall_clock(cpu1)
  | Time for this iteration                    :        0.063 s           0.062 s
  | Charge density update                      :        0.018 s           0.016 s
  | Density mixing                             :        0.001 s           0.001 s
  | Hartree multipole update                   :        0.004 s           0.004 s
  | Hartree multipole summation                :        0.016 s           0.015 s
  | Integration                                :        0.022 s           0.022 s
  | Solution of K.-S. eqns.                    :        0.001 s           0.001 s
  | Total energy evaluation                    :        0.000 s           0.001 s
------------------------------------------------------------

------------------------------------------------------------
          Begin self-consistency iteration #    2

  Date     :  20190722, Time     :  143622.407
------------------------------------------------------------
  Evaluating new KS density.
  Integration grid: deviation in total charge (<rho> - N_e) =  -5.071499E-12
  Pulay mixing of updated and previous charge densities.

  Evaluating partitioned Hartree potential by multipole expansion.
  | Analytical far-field extrapolation by fixed multipoles:
  | Hartree multipole sum: apparent total charge =  -0.470633E-07
  Summing up the Hartree potential.
  Time summed over all CPUs for potential: real work        0.108 s, elapsed        0.110 s
  | RMS charge density error from multipole expansion :   0.434819E-03

  Integrating Hamiltonian matrix: batch-based integration.
  Time summed over all CPUs for integration: real work        0.166 s, elapsed        0.169 s

  Updating Kohn-Sham eigenvalues, eigenvectors, occupation numbers, and Fermi level.
  Solving generalized eigenproblem
  Updating Kohn-Sham eigenvalues and eigenfunctions.
  Solving real generalised eigenvalue problem by standard LAPACK (fast)
  Determining occupation numbers for Kohn-Sham eigenstates.
  | Chemical potential (Fermi level) in eV                 : -.49828669E+01
  | Error in electron count due to remaining E_F inaccuracy: 0.00000000E+00
  | Maximum occupation number of highest empty state:  0.00E+00

  Highest occupied state (VBM) at     -4.98286691 eV
  | Occupation number:      1.00000000

  Lowest unoccupied state (CBM) at    -4.98286691 eV
  | Occupation number:      1.00000000

  Overall HOMO-LUMO gap:      0.00000000 eV.

  Total energy components:
  | Sum of eigenvalues            :         -82.74087132 Ha       -2251.49366337 eV
  | XC energy correction          :         -16.92827347 Ha        -460.64175823 eV
  | XC potential correction       :          21.76715895 Ha         592.31453160 eV
  | Free-atom electrostatic energy:         -71.52330919 Ha       -1946.24826722 eV
  | Hartree energy correction     :          -0.77681053 Ha         -21.13808998 eV
  | Entropy correction            :          -0.00020734 Ha          -0.00564190 eV
  | ---------------------------
  | Total energy                  :        -150.20210556 Ha       -4087.20724719 eV
  | Total energy, T -> 0          :        -150.20231290 Ha       -4087.21288908 eV  <-- do not rely on this value for anything but (periodic) metals
  | Electronic free energy        :        -150.20252023 Ha       -4087.21853098 eV

  Derived energy quantities:
  | Kinetic energy                :         150.44378993 Ha        4093.78381343 eV
  | Electrostatic energy          :        -283.71762203 Ha       -7720.34930240 eV
  | Energy correction for multipole
  | error in Hartree potential    :          -0.00049757 Ha          -0.01353947 eV
  | Sum of eigenvalues per atom                           :       -1125.74683169 eV
  | Total energy (T->0) per atom                          :       -2043.60644454 eV  <-- do not rely on this value for anything but (periodic) metals
  | Electronic free energy per atom                       :       -2043.60926549 eV

  Self-consistency convergence accuracy:
  | Change of charge density      :  0.1269E+00
  | Change of sum of eigenvalues  :  0.1356E+02 eV
  | Change of total energy        :  0.1361E+00 eV

  End self-consistency iteration #     2       :  max(cpu_time)    wall_clock(cpu1)
  | Time for this iteration                    :        0.058 s           0.057 s
  | Charge density update                      :        0.015 s           0.014 s
  | Density mixing                             :        0.002 s           0.002 s
  | Hartree multipole update                   :        0.004 s           0.003 s
  | Hartree multipole summation                :        0.015 s           0.015 s
  | Integration                                :        0.022 s           0.021 s
  | Solution of K.-S. eqns.                    :        0.001 s           0.001 s
  | Total energy evaluation                    :        0.000 s           0.000 s
------------------------------------------------------------

------------------------------------------------------------
          Begin self-consistency iteration #    3

  Date     :  20190722, Time     :  143622.466
------------------------------------------------------------
  Evaluating new KS density.
  Integration grid: deviation in total charge (<rho> - N_e) =  -6.039613E-14
  Pulay mixing of updated and previous charge densities.

  Evaluating partitioned Hartree potential by multipole expansion.
  | Analytical far-field extrapolation by fixed multipoles:
  | Hartree multipole sum: apparent total charge =  -0.107506E-06
  Summing up the Hartree potential.
  Time summed over all CPUs for potential: real work        0.107 s, elapsed        0.109 s
  | RMS charge density error from multipole expansion :   0.600036E-03

  Integrating Hamiltonian matrix: batch-based integration.
  Time summed over all CPUs for integration: real work        0.167 s, elapsed        0.170 s

  Updating Kohn-Sham eigenvalues, eigenvectors, occupation numbers, and Fermi level.
  Solving generalized eigenproblem
  Updating Kohn-Sham eigenvalues and eigenfunctions.
  Solving real generalised eigenvalue problem by standard LAPACK (fast)
  Determining occupation numbers for Kohn-Sham eigenstates.
  | Chemical potential (Fermi level) in eV                 : -.51626359E+01
  | Error in electron count due to remaining E_F inaccuracy: -.85265128E-13
  | Maximum occupation number of highest empty state:  0.00E+00

  Highest occupied state (VBM) at     -5.16263590 eV
  | Occupation number:      1.00000000

  Lowest unoccupied state (CBM) at    -5.16263590 eV
  | Occupation number:      1.00000000

  Overall HOMO-LUMO gap:      0.00000000 eV.

  Total energy components:
  | Sum of eigenvalues            :         -82.90511071 Ha       -2255.96284465 eV
  | XC energy correction          :         -16.90923221 Ha        -460.12361914 eV
  | XC potential correction       :          21.74213425 Ha         591.63357502 eV
  | Free-atom electrostatic energy:         -71.52330919 Ha       -1946.24826722 eV
  | Hartree energy correction     :          -0.60652794 Ha         -16.50446506 eV
  | Entropy correction            :          -0.00020734 Ha          -0.00564190 eV
  | ---------------------------
  | Total energy                  :        -150.20204580 Ha       -4087.20562104 eV
  | Total energy, T -> 0          :        -150.20225314 Ha       -4087.21126294 eV  <-- do not rely on this value for anything but (periodic) metals
  | Electronic free energy        :        -150.20246048 Ha       -4087.21690483 eV

  Derived energy quantities:
  | Kinetic energy                :         150.17864478 Ha        4086.56884679 eV
  | Electrostatic energy          :        -283.47145838 Ha       -7713.65084869 eV
  | Energy correction for multipole
  | error in Hartree potential    :          -0.00055643 Ha          -0.01514118 eV
  | Sum of eigenvalues per atom                           :       -1127.98142233 eV
  | Total energy (T->0) per atom                          :       -2043.60563147 eV  <-- do not rely on this value for anything but (periodic) metals
  | Electronic free energy per atom                       :       -2043.60845242 eV

  Self-consistency convergence accuracy:
  | Change of charge density      :  0.3284E-01
  | Change of sum of eigenvalues  : -0.4469E+01 eV
  | Change of total energy        :  0.1626E-02 eV

  End self-consistency iteration #     3       :  max(cpu_time)    wall_clock(cpu1)
  | Time for this iteration                    :        0.058 s           0.058 s
  | Charge density update                      :        0.016 s           0.016 s
  | Density mixing                             :        0.001 s           0.001 s
  | Hartree multipole update                   :        0.004 s           0.003 s
  | Hartree multipole summation                :        0.015 s           0.014 s
  | Integration                                :        0.022 s           0.022 s
  | Solution of K.-S. eqns.                    :        0.001 s           0.001 s
  | Total energy evaluation                    :        0.000 s           0.001 s
------------------------------------------------------------

------------------------------------------------------------
          Begin self-consistency iteration #    4

  Date     :  20190722, Time     :  143622.526
------------------------------------------------------------
  Evaluating new KS density.
  Integration grid: deviation in total charge (<rho> - N_e) =  -9.237056E-14
  Pulay mixing of updated and previous charge densities.

  Evaluating partitioned Hartree potential by multipole expansion.
  | Analytical far-field extrapolation by fixed multipoles:
  | Hartree multipole sum: apparent total charge =  -0.106635E-06
  Summing up the Hartree potential.
  Time summed over all CPUs for potential: real work        0.108 s, elapsed        0.111 s
  | RMS charge density error from multipole expansion :   0.632913E-03

  Integrating Hamiltonian matrix: batch-based integration.
  Time summed over all CPUs for integration: real work        0.166 s, elapsed        0.169 s

  Updating Kohn-Sham eigenvalues, eigenvectors, occupation numbers, and Fermi level.
  Solving generalized eigenproblem
  Updating Kohn-Sham eigenvalues and eigenfunctions.
  Solving real generalised eigenvalue problem by standard LAPACK (fast)
  Determining occupation numbers for Kohn-Sham eigenstates.
  | Chemical potential (Fermi level) in eV                 : -.50682845E+01
  | Error in electron count due to remaining E_F inaccuracy: -.95901243E-09
  | Maximum occupation number of highest empty state:  0.00E+00

  Highest occupied state (VBM) at     -5.06828447 eV
  | Occupation number:      1.00000008

  Lowest unoccupied state (CBM) at    -5.06828447 eV
  | Occupation number:      0.99999992

  Overall HOMO-LUMO gap:      0.00000000 eV.

  Total energy components:
  | Sum of eigenvalues            :         -82.83359887 Ha       -2254.01690826 eV
  | XC energy correction          :         -16.91747180 Ha        -460.34783005 eV
  | XC potential correction       :          21.75289405 Ha         591.92636392 eV
  | Free-atom electrostatic energy:         -71.52330919 Ha       -1946.24826722 eV
  | Hartree energy correction     :          -0.68054360 Ha         -18.51853365 eV
  | Entropy correction            :          -0.00020734 Ha          -0.00564190 eV
  | ---------------------------
  | Total energy                  :        -150.20202942 Ha       -4087.20517525 eV
  | Total energy, T -> 0          :        -150.20223676 Ha       -4087.21081714 eV  <-- do not rely on this value for anything but (periodic) metals
  | Electronic free energy        :        -150.20244409 Ha       -4087.21645904 eV

  Derived energy quantities:
  | Kinetic energy                :         150.22745244 Ha        4087.89697078 eV
  | Electrostatic energy          :        -283.51201006 Ha       -7714.75431598 eV
  | Energy correction for multipole
  | error in Hartree potential    :          -0.00059041 Ha          -0.01606584 eV
  | Sum of eigenvalues per atom                           :       -1127.00845413 eV
  | Total energy (T->0) per atom                          :       -2043.60540857 eV  <-- do not rely on this value for anything but (periodic) metals
  | Electronic free energy per atom                       :       -2043.60822952 eV

  Self-consistency convergence accuracy:
  | Change of charge density      :  0.7491E-02
  | Change of sum of eigenvalues  :  0.1946E+01 eV
  | Change of total energy        :  0.4458E-03 eV

  End self-consistency iteration #     4       :  max(cpu_time)    wall_clock(cpu1)
  | Time for this iteration                    :        0.058 s           0.058 s
  | Charge density update                      :        0.016 s           0.015 s
  | Density mixing                             :        0.001 s           0.001 s
  | Hartree multipole update                   :        0.004 s           0.003 s
  | Hartree multipole summation                :        0.015 s           0.015 s
  | Integration                                :        0.022 s           0.022 s
  | Solution of K.-S. eqns.                    :        0.001 s           0.001 s
  | Total energy evaluation                    :        0.000 s           0.001 s
------------------------------------------------------------

------------------------------------------------------------
          Begin self-consistency iteration #    5

  Date     :  20190722, Time     :  143622.587
------------------------------------------------------------
  Evaluating new KS density.
  Integration grid: deviation in total charge (<rho> - N_e) =  -9.590213E-10
  Pulay mixing of updated and previous charge densities.

  Evaluating partitioned Hartree potential by multipole expansion.
  | Analytical far-field extrapolation by fixed multipoles:
  | Hartree multipole sum: apparent total charge =  -0.107163E-06
  Summing up the Hartree potential.
  Time summed over all CPUs for potential: real work        0.107 s, elapsed        0.108 s
  | RMS charge density error from multipole expansion :   0.640204E-03

  Integrating Hamiltonian matrix: batch-based integration.
  Time summed over all CPUs for integration: real work        0.167 s, elapsed        0.169 s

  Updating Kohn-Sham eigenvalues, eigenvectors, occupation numbers, and Fermi level.
  Solving generalized eigenproblem
  Updating Kohn-Sham eigenvalues and eigenfunctions.
  Solving real generalised eigenvalue problem by standard LAPACK (fast)
  Determining occupation numbers for Kohn-Sham eigenstates.
  | Chemical potential (Fermi level) in eV                 : -.51066310E+01
  | Error in electron count due to remaining E_F inaccuracy: 0.85265128E-13
  | Maximum occupation number of highest empty state:  0.00E+00

  Highest occupied state (VBM) at     -5.10663104 eV
  | Occupation number:      1.00000101

  Lowest unoccupied state (CBM) at    -5.10663102 eV
  | Occupation number:      0.99999899

  Overall HOMO-LUMO gap:      0.00000002 eV.

  Total energy components:
  | Sum of eigenvalues            :         -82.86357197 Ha       -2254.83251787 eV
  | XC energy correction          :         -16.91330724 Ha        -460.23450657 eV
  | XC potential correction       :          21.74745118 Ha         591.77825599 eV
  | Free-atom electrostatic energy:         -71.52330919 Ha       -1946.24826722 eV
  | Hartree energy correction     :          -0.64927995 Ha         -17.66780630 eV
  | Entropy correction            :          -0.00020734 Ha          -0.00564190 eV
  | ---------------------------
  | Total energy                  :        -150.20201717 Ha       -4087.20484196 eV
  | Total energy, T -> 0          :        -150.20222451 Ha       -4087.21048386 eV  <-- do not rely on this value for anything but (periodic) metals
  | Electronic free energy        :        -150.20243184 Ha       -4087.21612575 eV

  Derived energy quantities:
  | Kinetic energy                :         150.19350450 Ha        4086.97320033 eV
  | Electrostatic energy          :        -283.48221443 Ha       -7713.94353572 eV
  | Energy correction for multipole
  | error in Hartree potential    :          -0.00058565 Ha          -0.01593632 eV
  | Sum of eigenvalues per atom                           :       -1127.41625893 eV
  | Total energy (T->0) per atom                          :       -2043.60524193 eV  <-- do not rely on this value for anything but (periodic) metals
  | Electronic free energy per atom                       :       -2043.60806288 eV

  Self-consistency convergence accuracy:
  | Change of charge density      :  0.4827E-02
  | Change of sum of eigenvalues  : -0.8156E+00 eV
  | Change of total energy        :  0.3333E-03 eV

  End self-consistency iteration #     5       :  max(cpu_time)    wall_clock(cpu1)
  | Time for this iteration                    :        0.061 s           0.060 s
  | Charge density update                      :        0.016 s           0.015 s
  | Density mixing                             :        0.001 s           0.001 s
  | Hartree multipole update                   :        0.004 s           0.003 s
  | Hartree multipole summation                :        0.015 s           0.015 s
  | Integration                                :        0.022 s           0.021 s
  | Solution of K.-S. eqns.                    :        0.001 s           0.002 s
  | Total energy evaluation                    :        0.000 s           0.002 s
------------------------------------------------------------

------------------------------------------------------------
          Begin self-consistency iteration #    6

  Date     :  20190722, Time     :  143622.647
------------------------------------------------------------
  Evaluating new KS density.
  Integration grid: deviation in total charge (<rho> - N_e) =   4.618528E-14
  Pulay mixing of updated and previous charge densities.

  Evaluating partitioned Hartree potential by multipole expansion.
  | Analytical far-field extrapolation by fixed multipoles:
  | Hartree multipole sum: apparent total charge =  -0.105720E-06
  Summing up the Hartree potential.
  Time summed over all CPUs for potential: real work        0.107 s, elapsed        0.108 s
  | RMS charge density error from multipole expansion :   0.641506E-03

  Integrating Hamiltonian matrix: batch-based integration.
  Time summed over all CPUs for integration: real work        0.165 s, elapsed        0.168 s

  Updating Kohn-Sham eigenvalues, eigenvectors, occupation numbers, and Fermi level.
  Solving generalized eigenproblem
  Updating Kohn-Sham eigenvalues and eigenfunctions.
  Solving real generalised eigenvalue problem by standard LAPACK (fast)
  Determining occupation numbers for Kohn-Sham eigenstates.
  | Chemical potential (Fermi level) in eV                 : -.51088880E+01
  | Error in electron count due to remaining E_F inaccuracy: 0.34106051E-12
  | Maximum occupation number of highest empty state:  0.00E+00

  Highest occupied state (VBM) at     -5.10888851 eV
  | Occupation number:      1.00006032

  Lowest unoccupied state (CBM) at    -5.10888744 eV
  | Occupation number:      0.99993968

  Overall HOMO-LUMO gap:      0.00000107 eV.

  Total energy components:
  | Sum of eigenvalues            :         -82.86490085 Ha       -2254.86867847 eV
  | XC energy correction          :         -16.91325383 Ha        -460.23305311 eV
  | XC potential correction       :          21.74737253 Ha         591.77611566 eV
  | Free-atom electrostatic energy:         -71.52330919 Ha       -1946.24826722 eV
  | Hartree energy correction     :          -0.64792581 Ha         -17.63095829 eV
  | Entropy correction            :          -0.00020734 Ha          -0.00564190 eV
  | ---------------------------
  | Total energy                  :        -150.20201715 Ha       -4087.20484141 eV
  | Total energy, T -> 0          :        -150.20222449 Ha       -4087.21048331 eV  <-- do not rely on this value for anything but (periodic) metals
  | Electronic free energy        :        -150.20243182 Ha       -4087.21612520 eV

  Derived energy quantities:
  | Kinetic energy                :         150.19539453 Ha        4087.02463061 eV
  | Electrostatic energy          :        -283.48415785 Ha       -7713.99641892 eV
  | Energy correction for multipole
  | error in Hartree potential    :          -0.00058628 Ha          -0.01595360 eV
  | Sum of eigenvalues per atom                           :       -1127.43433923 eV
  | Total energy (T->0) per atom                          :       -2043.60524165 eV  <-- do not rely on this value for anything but (periodic) metals
  | Electronic free energy per atom                       :       -2043.60806260 eV

  Self-consistency convergence accuracy:
  | Change of charge density      :  0.2635E-03
  | Change of sum of eigenvalues  : -0.3616E-01 eV
  | Change of total energy        :  0.5485E-06 eV

  End self-consistency iteration #     6       :  max(cpu_time)    wall_clock(cpu1)
  | Time for this iteration                    :        0.057 s           0.059 s
  | Charge density update                      :        0.016 s           0.017 s
  | Density mixing                             :        0.002 s           0.001 s
  | Hartree multipole update                   :        0.004 s           0.003 s
  | Hartree multipole summation                :        0.015 s           0.015 s
  | Integration                                :        0.022 s           0.021 s
  | Solution of K.-S. eqns.                    :        0.001 s           0.001 s
  | Total energy evaluation                    :        0.000 s           0.001 s
------------------------------------------------------------

------------------------------------------------------------
          Begin self-consistency iteration #    7

  Date     :  20190722, Time     :  143622.709
------------------------------------------------------------
  Evaluating new KS density.
  Integration grid: deviation in total charge (<rho> - N_e) =   3.197442E-13
  Pulay mixing of updated and previous charge densities.

  Evaluating partitioned Hartree potential by multipole expansion.
  | Analytical far-field extrapolation by fixed multipoles:
  | Hartree multipole sum: apparent total charge =  -0.105723E-06
  Summing up the Hartree potential.
  Time summed over all CPUs for potential: real work        0.107 s, elapsed        0.108 s
  | RMS charge density error from multipole expansion :   0.641503E-03

  Integrating Hamiltonian matrix: batch-based integration.
  Time summed over all CPUs for integration: real work        0.167 s, elapsed        0.169 s

  Updating Kohn-Sham eigenvalues, eigenvectors, occupation numbers, and Fermi level.
  Solving generalized eigenproblem
  Updating Kohn-Sham eigenvalues and eigenfunctions.
  Solving real generalised eigenvalue problem by standard LAPACK (fast)
  Determining occupation numbers for Kohn-Sham eigenstates.
  | Chemical potential (Fermi level) in eV                 : -.51088527E+01
  | Error in electron count due to remaining E_F inaccuracy: 0.17053026E-12
  | Maximum occupation number of highest empty state:  0.00E+00

  Highest occupied state (VBM) at     -5.10885387 eV
  | Occupation number:      1.00013552

  Lowest unoccupied state (CBM) at    -5.10885147 eV
  | Occupation number:      0.99986448

  Overall HOMO-LUMO gap:      0.00000240 eV.

  Total energy components:
  | Sum of eigenvalues            :         -82.86487373 Ha       -2254.86794049 eV
  | XC energy correction          :         -16.91325639 Ha        -460.23312282 eV
  | XC potential correction       :          21.74737591 Ha         591.77620782 eV
  | Free-atom electrostatic energy:         -71.52330919 Ha       -1946.24826722 eV
  | Hartree energy correction     :          -0.64795375 Ha         -17.63171869 eV
  | Entropy correction            :          -0.00020734 Ha          -0.00564190 eV
  | ---------------------------
  | Total energy                  :        -150.20201715 Ha       -4087.20484141 eV
  | Total energy, T -> 0          :        -150.20222449 Ha       -4087.21048331 eV  <-- do not rely on this value for anything but (periodic) metals
  | Electronic free energy        :        -150.20243182 Ha       -4087.21612520 eV

  Derived energy quantities:
  | Kinetic energy                :         150.19541035 Ha        4087.02506117 eV
  | Electrostatic energy          :        -283.48417111 Ha       -7713.99677975 eV
  | Energy correction for multipole
  | error in Hartree potential    :          -0.00058629 Ha          -0.01595364 eV
  | Sum of eigenvalues per atom                           :       -1127.43397025 eV
  | Total energy (T->0) per atom                          :       -2043.60524165 eV  <-- do not rely on this value for anything but (periodic) metals
  | Electronic free energy per atom                       :       -2043.60806260 eV

  Self-consistency convergence accuracy:
  | Change of charge density      :  0.2338E-04
  | Change of sum of eigenvalues  :  0.7380E-03 eV
  | Change of total energy        :  0.8809E-09 eV

  Electronic self-consistency reached - switching on the force computation.

  End self-consistency iteration #     7       :  max(cpu_time)    wall_clock(cpu1)
  | Time for this iteration                    :        0.061 s           0.060 s
  | Charge density & force component update    :        0.016 s           0.015 s
  | Density mixing                             :        0.001 s           0.001 s
  | Hartree multipole update                   :        0.004 s           0.004 s
  | Hartree multipole summation                :        0.015 s           0.014 s
  | Integration                                :        0.022 s           0.022 s
  | Solution of K.-S. eqns.                    :        0.001 s           0.001 s
  | Total energy evaluation                    :        0.001 s           0.001 s
------------------------------------------------------------

------------------------------------------------------------
          Begin self-consistency iteration #    8

  Date     :  20190722, Time     :  143622.771
------------------------------------------------------------
  Evaluating new KS density.
  Integration grid: deviation in total charge (<rho> - N_e) =   1.207923E-13
  Pulay mixing of updated and previous charge densities.

  Evaluating partitioned Hartree potential by multipole expansion.
  | Analytical far-field extrapolation by fixed multipoles:
  | Hartree multipole sum: apparent total charge =  -0.105731E-06
  Summing up the Hartree potential.
  Time summed over all CPUs for potential: real work        0.276 s, elapsed        0.281 s
  | RMS charge density error from multipole expansion :   0.641494E-03

  Integrating Hamiltonian matrix: batch-based integration.
  Time summed over all CPUs for integration: real work        0.166 s, elapsed        0.168 s

  Updating Kohn-Sham eigenvalues, eigenvectors, occupation numbers, and Fermi level.
  Solving generalized eigenproblem
  Updating Kohn-Sham eigenvalues and eigenfunctions.
  Solving real generalised eigenvalue problem by standard LAPACK (fast)
  Determining occupation numbers for Kohn-Sham eigenstates.
  | Chemical potential (Fermi level) in eV                 : -.51087541E+01
  | Error in electron count due to remaining E_F inaccuracy: 0.00000000E+00
  | Maximum occupation number of highest empty state:  0.00E+00

  Highest occupied state (VBM) at     -5.10875409 eV
  | Occupation number:      1.00000094

  Lowest unoccupied state (CBM) at    -5.10875407 eV
  | Occupation number:      0.99999906

  Overall HOMO-LUMO gap:      0.00000002 eV.

  Total energy components:
  | Sum of eigenvalues            :         -82.86479818 Ha       -2254.86588482 eV
  | XC energy correction          :         -16.91326351 Ha        -460.23331645 eV
  | XC potential correction       :          21.74738532 Ha         591.77646380 eV
  | Free-atom electrostatic energy:         -71.52330919 Ha       -1946.24826722 eV
  | Hartree energy correction     :          -0.64803159 Ha         -17.63383673 eV
  | Entropy correction            :          -0.00020734 Ha          -0.00564190 eV
  | ---------------------------
  | Total energy                  :        -150.20201715 Ha       -4087.20484141 eV
  | Total energy, T -> 0          :        -150.20222449 Ha       -4087.21048331 eV  <-- do not rely on this value for anything but (periodic) metals
  | Electronic free energy        :        -150.20243182 Ha       -4087.21612520 eV

  Derived energy quantities:
  | Kinetic energy                :         150.19545335 Ha        4087.02623114 eV
  | Electrostatic energy          :        -283.48420699 Ha       -7713.99775610 eV
  | Energy correction for multipole
  | error in Hartree potential    :          -0.00058629 Ha          -0.01595376 eV
  | Sum of eigenvalues per atom                           :       -1127.43294241 eV
  | Total energy (T->0) per atom                          :       -2043.60524165 eV  <-- do not rely on this value for anything but (periodic) metals
  | Electronic free energy per atom                       :       -2043.60806260 eV

  atomic forces [eV/Ang]:
  -----------------------
  atom #    1
   Hellmann-Feynman              : -0.202010E-09 -0.114903E-09 -0.243157E+02
   Ionic forces                  :  0.000000E+00  0.000000E+00  0.000000E+00
   Multipole                     :  0.708685E-12 -0.680463E-12  0.439638E-01
   Pulay + GGA                   :  0.000000E+00  0.000000E+00  0.000000E+00
   ----------------------------------------------------------------
   Total forces(   1)            : -0.201301E-09 -0.115583E-09 -0.242717E+02
  atom #    2
   Hellmann-Feynman              : -0.199891E-10 -0.123474E-09  0.243157E+02
   Ionic forces                  :  0.000000E+00  0.000000E+00  0.000000E+00
   Multipole                     :  0.420425E-12 -0.140905E-12 -0.439638E-01
   Pulay + GGA                   :  0.000000E+00  0.000000E+00  0.000000E+00
   ----------------------------------------------------------------
   Total forces(   2)            : -0.195686E-10 -0.123615E-09  0.242717E+02


  Self-consistency convergence accuracy:
  | Change of charge density      :  0.4365E-04
  | Change of sum of eigenvalues  :  0.2056E-02 eV
  | Change of total energy        :  0.8252E-09 eV
  | Change of forces              :  0.2427E+02 eV/A

  End self-consistency iteration #     8       :  max(cpu_time)    wall_clock(cpu1)
  | Time for this iteration                    :        0.081 s           0.080 s
  | Charge density & force component update    :        0.016 s           0.015 s
  | Density mixing                             :        0.002 s           0.002 s
  | Hartree multipole update                   :        0.004 s           0.003 s
  | Hartree multipole summation                :        0.036 s           0.036 s
  | Integration                                :        0.022 s           0.021 s
  | Solution of K.-S. eqns.                    :        0.001 s           0.001 s
  | Total energy evaluation                    :        0.001 s           0.001 s
------------------------------------------------------------

------------------------------------------------------------
          Begin self-consistency iteration #    9

  Date     :  20190722, Time     :  143622.854
------------------------------------------------------------
  Evaluating new KS density and force components.
  Integration grid: deviation in total charge (<rho> - N_e) =   7.460699E-14
  Pulay mixing of updated and previous charge densities.

  Evaluating partitioned Hartree potential by multipole expansion.
  | Analytical far-field extrapolation by fixed multipoles:
  | Hartree multipole sum: apparent total charge =  -0.105740E-06
  Summing up the Hartree potential.
  Time summed over all CPUs for potential: real work        0.276 s, elapsed        0.281 s
  | RMS charge density error from multipole expansion :   0.641539E-03

  Integrating Hamiltonian matrix: batch-based integration.
  Time summed over all CPUs for integration: real work        0.166 s, elapsed        0.168 s

  Updating Kohn-Sham eigenvalues, eigenvectors, occupation numbers, and Fermi level.
  Solving generalized eigenproblem
  Updating Kohn-Sham eigenvalues and eigenfunctions.
  Solving real generalised eigenvalue problem by standard LAPACK (fast)
  Determining occupation numbers for Kohn-Sham eigenstates.
  | Chemical potential (Fermi level) in eV                 : -.51087306E+01
  | Error in electron count due to remaining E_F inaccuracy: 0.85265128E-13
  | Maximum occupation number of highest empty state:  0.00E+00

  Highest occupied state (VBM) at     -5.10873064 eV
  | Occupation number:      1.00000000

  Lowest unoccupied state (CBM) at    -5.10873064 eV
  | Occupation number:      1.00000000

  Overall HOMO-LUMO gap:      0.00000000 eV.

  Total energy components:
  | Sum of eigenvalues            :         -82.86478419 Ha       -2254.86550406 eV
  | XC energy correction          :         -16.91326485 Ha        -460.23335295 eV
  | XC potential correction       :          21.74738707 Ha         591.77651143 eV
  | Free-atom electrostatic energy:         -71.52330919 Ha       -1946.24826722 eV
  | Hartree energy correction     :          -0.64804599 Ha         -17.63422862 eV
  | Entropy correction            :          -0.00020734 Ha          -0.00564190 eV
  | ---------------------------
  | Total energy                  :        -150.20201715 Ha       -4087.20484142 eV
  | Total energy, T -> 0          :        -150.20222449 Ha       -4087.21048331 eV  <-- do not rely on this value for anything but (periodic) metals
  | Electronic free energy        :        -150.20243182 Ha       -4087.21612521 eV

  Derived energy quantities:
  | Kinetic energy                :         150.19544446 Ha        4087.02598927 eV
  | Electrostatic energy          :        -283.48419676 Ha       -7713.99747773 eV
  | Energy correction for multipole
  | error in Hartree potential    :          -0.00058630 Ha          -0.01595409 eV
  | Sum of eigenvalues per atom                           :       -1127.43275203 eV
  | Total energy (T->0) per atom                          :       -2043.60524166 eV  <-- do not rely on this value for anything but (periodic) metals
  | Electronic free energy per atom                       :       -2043.60806260 eV

  atomic forces [eV/Ang]:
  -----------------------
  atom #    1
   Hellmann-Feynman              :  0.209391E-09  0.171955E-09 -0.243151E+02
   Ionic forces                  :  0.000000E+00  0.000000E+00  0.000000E+00
   Multipole                     : -0.558666E-12  0.960829E-12  0.439691E-01
   Pulay + GGA                   :  0.321359E-10  0.187212E-10  0.149519E+02
   ----------------------------------------------------------------
   Total forces(   1)            :  0.240968E-09  0.191637E-09 -0.931920E+01
  atom #    2
   Hellmann-Feynman              :  0.896170E-10  0.160334E-09  0.243151E+02
   Ionic forces                  :  0.000000E+00  0.000000E+00  0.000000E+00
   Multipole                     : -0.433686E-12 -0.902864E-13 -0.439691E-01
   Pulay + GGA                   :  0.492829E-11  0.225591E-10 -0.149519E+02
   ----------------------------------------------------------------
   Total forces(   2)            :  0.941116E-10  0.182803E-09  0.931920E+01


  Self-consistency convergence accuracy:
  | Change of charge density      :  0.4474E-05
  | Change of sum of eigenvalues  :  0.3808E-03 eV
  | Change of total energy        : -0.6996E-08 eV
  | Change of forces              :  0.6380E-03 eV/A

  End self-consistency iteration #     9       :  max(cpu_time)    wall_clock(cpu1)
  | Time for this iteration                    :        0.116 s           0.115 s
  | Charge density & force component update    :        0.051 s           0.050 s
  | Density mixing                             :        0.002 s           0.002 s
  | Hartree multipole update                   :        0.003 s           0.003 s
  | Hartree multipole summation                :        0.036 s           0.036 s
  | Integration                                :        0.022 s           0.021 s
  | Solution of K.-S. eqns.                    :        0.001 s           0.001 s
  | Total energy evaluation                    :        0.001 s           0.002 s
------------------------------------------------------------

------------------------------------------------------------
          Begin self-consistency iteration #   10

  Date     :  20190722, Time     :  143622.972
------------------------------------------------------------
  Evaluating new KS density and force components.
  Integration grid: deviation in total charge (<rho> - N_e) =   1.101341E-13
  Pulay mixing of updated and previous charge densities.

  Evaluating partitioned Hartree potential by multipole expansion.
  | Analytical far-field extrapolation by fixed multipoles:
  | Hartree multipole sum: apparent total charge =  -0.105741E-06
  Summing up the Hartree potential.
  Time summed over all CPUs for potential: real work        0.275 s, elapsed        0.281 s
  | RMS charge density error from multipole expansion :   0.641540E-03

  Integrating Hamiltonian matrix: batch-based integration.
  Time summed over all CPUs for integration: real work        0.166 s, elapsed        0.168 s

  Updating Kohn-Sham eigenvalues, eigenvectors, occupation numbers, and Fermi level.
  Solving generalized eigenproblem
  Updating Kohn-Sham eigenvalues and eigenfunctions.
  Solving real generalised eigenvalue problem by standard LAPACK (fast)
  Determining occupation numbers for Kohn-Sham eigenstates.
  | Chemical potential (Fermi level) in eV                 : -.51087288E+01
  | Error in electron count due to remaining E_F inaccuracy: 0.00000000E+00
  | Maximum occupation number of highest empty state:  0.00E+00

  Highest occupied state (VBM) at     -5.10872876 eV
  | Occupation number:      1.00000003

  Lowest unoccupied state (CBM) at    -5.10872876 eV
  | Occupation number:      0.99999997

  Overall HOMO-LUMO gap:      0.00000000 eV.

  Total energy components:
  | Sum of eigenvalues            :         -82.86478256 Ha       -2254.86545983 eV
  | XC energy correction          :         -16.91326503 Ha        -460.23335777 eV
  | XC potential correction       :          21.74738730 Ha         591.77651773 eV
  | Free-atom electrostatic energy:         -71.52330919 Ha       -1946.24826722 eV
  | Hartree energy correction     :          -0.64804767 Ha         -17.63427433 eV
  | Entropy correction            :          -0.00020734 Ha          -0.00564190 eV
  | ---------------------------
  | Total energy                  :        -150.20201715 Ha       -4087.20484142 eV
  | Total energy, T -> 0          :        -150.20222449 Ha       -4087.21048331 eV  <-- do not rely on this value for anything but (periodic) metals
  | Electronic free energy        :        -150.20243182 Ha       -4087.21612521 eV

  Derived energy quantities:
  | Kinetic energy                :         150.19544533 Ha        4087.02601298 eV
  | Electrostatic energy          :        -283.48419746 Ha       -7713.99749663 eV
  | Energy correction for multipole
  | error in Hartree potential    :          -0.00058630 Ha          -0.01595412 eV
  | Sum of eigenvalues per atom                           :       -1127.43272992 eV
  | Total energy (T->0) per atom                          :       -2043.60524166 eV  <-- do not rely on this value for anything but (periodic) metals
  | Electronic free energy per atom                       :       -2043.60806260 eV

  atomic forces [eV/Ang]:
  -----------------------
  atom #    1
   Hellmann-Feynman              : -0.211129E-10  0.250652E-10 -0.243150E+02
   Ionic forces                  :  0.000000E+00  0.000000E+00  0.000000E+00
   Multipole                     : -0.927503E-13  0.291841E-12  0.439692E-01
   Pulay + GGA                   : -0.399658E-10 -0.355242E-10  0.149520E+02
   ----------------------------------------------------------------
   Total forces(   1)            : -0.611715E-10 -0.101672E-10 -0.931904E+01
  atom #    2
   Hellmann-Feynman              :  0.137741E-11  0.862151E-11  0.243150E+02
   Ionic forces                  :  0.000000E+00  0.000000E+00  0.000000E+00
   Multipole                     : -0.163391E-12 -0.272943E-12 -0.439692E-01
   Pulay + GGA                   : -0.245273E-10 -0.286249E-10 -0.149520E+02
   ----------------------------------------------------------------
   Total forces(   2)            : -0.233133E-10 -0.202763E-10  0.931904E+01


  Self-consistency convergence accuracy:
  | Change of charge density      :  0.2733E-06
  | Change of sum of eigenvalues  :  0.4422E-04 eV
  | Change of total energy        : -0.1585E-09 eV
  | Change of forces              :  0.7268E-04 eV/A

  Writing Kohn-Sham eigenvalues.

  State    Occupation    Eigenvalue [Ha]    Eigenvalue [eV]
      1       2.00000         -18.890116         -514.02622
      2       2.00000         -18.889903         -514.02042
      3       2.00000          -1.264962          -34.42137
      4       2.00000          -0.702169          -19.10699
      5       2.00000          -0.501484          -13.64608
      6       2.00000          -0.501484          -13.64608
      7       2.00000          -0.494530          -13.45685
      8       1.00000          -0.187742           -5.10873
      9       1.00000          -0.187742           -5.10873
     10       0.00000           0.098767            2.68759
     11       0.00000           0.105011            2.85750
     12       0.00000           0.133245            3.62577
     13       0.00000           0.133245            3.62577
     14       0.00000           0.210368            5.72440

  Highest occupied state (VBM) at     -5.10872876 eV
  | Occupation number:      1.00000003

  Lowest unoccupied state (CBM) at    -5.10872876 eV
  | Occupation number:      0.99999997

  Overall HOMO-LUMO gap:      0.00000000 eV.

  Self-consistency cycle converged.

  End self-consistency iteration #    10       :  max(cpu_time)    wall_clock(cpu1)
  | Time for this iteration                    :        0.116 s           0.116 s
  | Charge density & force component update    :        0.051 s           0.050 s
  | Density mixing                             :        0.002 s           0.002 s
  | Hartree multipole update                   :        0.004 s           0.003 s
  | Hartree multipole summation                :        0.036 s           0.036 s
  | Integration                                :        0.022 s           0.021 s
  | Solution of K.-S. eqns.                    :        0.001 s           0.001 s
  | Total energy evaluation                    :        0.001 s           0.002 s
------------------------------------------------------------
  Writing cluster restart information to file restart
  ------------------------------------------------------------
   Computing monopole / dipole moments for complete molecule:
  | Total electronic charge [e]         :          0.160000000000001E+02
  | Total ionic charge [e]              :          0.160000000000000E+02
  | Total charge [e]                    :         -0.994759830064140E-13
  | Total dipole moment [eAng]          :          0.831319182548196E-13         0.588973484455524E-13         0.364722931820438E-12
  | Absolute dipole moment              :          0.378685397767512E-12 eAng              /                   0.181862000919616E-11 Debye  .
  Removing unitary transformations (pure translations, rotations) from forces on atoms.
  Atomic forces before filtering:
  | Net force on center of mass :  -0.844848E-10 -0.304435E-10 -0.732750E-10 eV/A
  | Net torque on center of mass:   0.568783E-11  0.213006E-10  0.000000E+00 eV
  Atomic forces after filtering:
  | Net force on center of mass :  -0.103846E-25 -0.519230E-26  0.000000E+00 eV/A
  | Net torque on center of mass:   0.292140E-26  0.116856E-25  0.000000E+00 eV

  Energy and forces in a compact form:
  | Total energy uncorrected      :         -0.408720484141769E+04 eV
  | Total energy corrected        :         -0.408721048331340E+04 eV  <-- do not rely on this value for anything but (periodic) metals
  | Electronic free energy        :         -0.408721612520911E+04 eV
  Total atomic forces (unitary forces cleaned) [eV/Ang]:
  |   1         -0.155769047670269E-25          0.000000000000000E+00         -0.931904486930631E+01
  |   2          0.519230158900898E-26         -0.519230158900898E-26          0.931904486930631E+01

  ------------------------------------ 
  Start decomposition of the XC Energy 
  ------------------------------------ 
  Hartree-Fock part   :          0.000000000 Ha              0.000000000 eV
  ------------------------------------ 
  X Energy            :        -16.373126124 Ha           -445.535430424 eV
  C Energy GGA        :         -0.540138902 Ha            -14.697927345 eV
  Total XC Energy     :        -16.913265026 Ha           -460.233357769 eV
  LDA X and C from self-consistent density 
  X Energy LDA        :        -14.878321966 Ha           -404.859739734 eV
  C Energy LDA        :         -1.115922037 Ha            -30.365783620 eV
  ------------------------------------ 
  End decomposition of the XC Energy 
  ------------------------------------ 

------------------------------------------------------------------------------
  Final output of selected total energy values:

  The following output summarizes some interesting total energy values
  at the end of a run (AFTER all relaxation, molecular dynamics, etc.).

  | Total energy of the DFT / Hartree-Fock s.c.f. calculation      :          -4087.204841418 eV
  | Final zero-broadening corrected energy (caution - metals only) :          -4087.210483313 eV
  | For reference only, the value of 1 Hartree used in FHI-aims is :             27.211384500 eV

  Before relying on these values, please be sure to understand exactly which
  total energy value is referred to by a given number. Different objects may
  all carry the same name 'total energy'. Definitions:

  Total energy of the DFT / Hartree-Fock s.c.f. calculation:
  | Note that this energy does not include ANY quantities calculated after the
  | s.c.f. cycle, in particular not ANY RPA, MP2, etc. many-body perturbation terms.

  Final zero-broadening corrected energy:
  | For metallic systems only, a broadening of the occupation numbers at the Fermi
  | level can be extrapolated back to zero broadening by an electron-gas inspired
  | formula. For all systems that are not real metals, this value can be
  | meaningless and should be avoided.

------------------------------------------------------------------------------
  Methods described in the following list of references were used in this FHI-aims run.
  If you publish the results, please make sure to cite these reference if they apply.
  FHI-aims is an academic code, and for our developers (often, Ph.D. students
  and postdocs), scientific credit in the community is essential.
  Thank you for helping us!

  For any use of FHI-aims, please cite:

    Volker Blum, Ralf Gehrke, Felix Hanke, Paula Havu, Ville Havu,
    Xinguo Ren, Karsten Reuter, and Matthias Scheffler
    'Ab initio molecular simulations with numeric atom-centered orbitals'
    Computer Physics Communications 180, 2175-2196 (2009)
    http://dx.doi.org/10.1016/j.cpc.2009.06.022


  For the real-space grid partitioning and parallelization used in this calculation, please cite:

    Ville Havu, Volker Blum, Paula Havu, and Matthias Scheffler,
    'Efficient O(N) integration for all-electron electronic structure calculation'
    'using numerically tabulated basis functions'
    Journal of Computational Physics 228, 8367-8379 (2009).
    http://dx.doi.org/10.1016/j.jcp.2009.08.008

  Of course, there are many other important community references, e.g., those cited in the
  above references. Our list is limited to references that describe implementations in the
  FHI-aims code. The reason is purely practical (length of this list) - please credit others as well.

------------------------------------------------------------
          Leaving FHI-aims.
          Date     :  20190722, Time     :  143623.121

          Computational steps:
          | Number of self-consistency cycles          :           10

          Detailed time accounting                     :  max(cpu_time)    wall_clock(cpu1)
          | Total time                                 :        1.034 s           1.054 s
          | Preparation time                           :        0.149 s           0.166 s
          | Grid partitioning                          :        0.018 s           0.018 s
          | Preloading free-atom quantities on grid    :        0.018 s           0.017 s
          | Free-atom superposition energy             :        0.005 s           0.004 s
          | Total time for integrations                :        0.252 s           0.245 s
          | Total time for solution of K.-S. equations :        0.018 s           0.020 s
          | Total time for density & force components  :        0.231 s           0.223 s
          | Total time for mixing                      :        0.015 s           0.014 s
          | Total time for Hartree multipole update    :        0.039 s           0.032 s
          | Total time for Hartree multipole sum       :        0.214 s           0.211 s
          | Total time for total energy evaluation     :        0.006 s           0.013 s

          Have a nice day.
------------------------------------------------------------
