  MPI-parallelism will be employed.
------------------------------------------------------------
          Invoking FHI-aims ...
          Version 160328_3
          Compiled on 2019/06/10 at 14:55:49 on host taito-login3.csc.fi.

          When using FHI-aims, please cite the following reference:

          Volker Blum, Ralf Gehrke, Felix Hanke, Paula Havu,
          Ville Havu, Xinguo Ren, Karsten Reuter, and Matthias Scheffler,
          'Ab Initio Molecular Simulations with Numeric Atom-Centered Orbitals',
          Computer Physics Communications 180, 2175-2196 (2009)

          For any questions about FHI-aims, please visit the aimsclub website
          with its forums and wiki. Contributions to both the forums and the
          wiki are warmly encouraged - they are for you, and everyone is welcome there.

------------------------------------------------------------

  Date     :  20190722, Time     :  144504.529
  Time zero on CPU 1             :   0.559910000000000E-01  s.
  Internal wall clock time zero  :           333038704.529  s.

  Using        4 parallel tasks.
  Task        0 on host c798 reporting.
  Task        1 on host c798 reporting.
  Task        2 on host c798 reporting.
  Task        3 on host c798 reporting.

  Performing system and environment tests:
  | Environment variable OMP_NUM_THREADS correctly set to 1.
  | Maximum stacksize for task 0: unlimited
  | Maximum stacksize for task 1: unlimited
  | Maximum stacksize for task 2: unlimited
  | Maximum stacksize for task 3: unlimited
  | Current stacksize for task 0: 1024 [Mb]
  | Current stacksize for task 1: 1024 [Mb]
  | Current stacksize for task 2: 1024 [Mb]
  | Current stacksize for task 3: 1024 [Mb]
  | Checking for scalapack...
  | No scalapack compiled in.

  Obtaining array dimensions for all initial allocations:
  
  -----------------------------------------------------------------------
  Parsing control.in (first pass over file, find array dimensions only).
  The contents of control.in will be repeated verbatim below
  unless switched off by setting 'verbatim_writeout .false.' .
  in the first line of control.in .
  -----------------------------------------------------------------------
  
    #  Physical model settings
    #
  
    xc                            pbe
    charge                        1.0
    relativistic                  none
  #  default_initial_moment        0.0
    spin                          none
  #  vdw_correction_hirshfeld
  
    #  SCF convergence settings
    #
  
    sc_accuracy_rho               1E-4
    sc_accuracy_eev               1E-2
    sc_accuracy_etot              1E-8
    sc_iter_limit                 100
  
    #  Occupation settings
    #
  
    restart                       restart
  #  force_occupation_projector      5 1 1.0 5 5 # ion 4
  
    #  Relaxation
    #
  
    #relax_geometry                bfgs    1.e-4
  
  
  ################################################################################
  #
  #  FHI-aims code project
  #  VB, Fritz-Haber Institut, 2007
  #
  #  Suggested "safe" defaults for O atom (to be pasted into control.in file)
  #
  ################################################################################
    species        O
  #     global species definitions
      nucleus             8
      mass                15.9994
  #
      l_hartree           8
  #
      cut_pot             4.0  2.0  1.0
      basis_dep_cutoff    0.d0
  #
      radial_base         36 7.0
      radial_multiplier   2
       angular_grids specified
        division   0.4087  110
        division   0.5181  194
        division   0.6184  302
        division   0.7315  434
        division   0.7934  590
  #      division   0.9656  770
  #      division   1.4041  974
  #      outer_grid 974
        outer_grid 590
  ################################################################################
  #
  #  Definition of "minimal" basis
  #
  ################################################################################
  #     valence basis states
      valence      2  s   2.
      valence      2  p   4.
  #     ion occupancy
      ion_occ      2  s   1.
      ion_occ      2  p   3.
  ################################################################################
  #
  #  Suggested additional basis functions. For production calculations,
  #  uncomment them one after another (the most important basis functions are
  #  listed first).
  #
  #  Constructed for dimers: 1.0 A, 1.208 A, 1.5 A, 2.0 A, 3.0 A
  #
  ################################################################################
  #  "First tier" - improvements: -699.05 meV to -159.38 meV
       hydro 2 p 1.8
       hydro 3 d 7.6
       hydro 3 s 6.4
  #  "Second tier" - improvements: -49.91 meV to -5.39 meV
       hydro 4 f 11.6
       hydro 3 p 6.2
       hydro 3 d 5.6
       hydro 5 g 17.6
       hydro 1 s 0.75
  #  "Third tier" - improvements: -2.83 meV to -0.50 meV
  #     ionic 2 p auto
  #     hydro 4 f 10.8
  #     hydro 4 d 4.7
  #     hydro 2 s 6.8
  #  "Fourth tier" - improvements: -0.40 meV to -0.12 meV
  #     hydro 3 p 5
  #     hydro 3 s 3.3
  #     hydro 5 g 15.6
  #     hydro 4 f 17.6
  #     hydro 4 d 14
  # Further basis functions - -0.08 meV and below
  #     hydro 3 s 2.1
  #     hydro 4 d 11.6
  #     hydro 3 p 16
  #     hydro 2 s 17.2
  compute_forces .true.
  final_forces_cleaned .true.
  output dipole
  
  -----------------------------------------------------------------------
  Completed first pass over input file control.in .
  -----------------------------------------------------------------------
  
  
  -----------------------------------------------------------------------
  Parsing geometry.in (first pass over file, find array dimensions only).
  The contents of geometry.in will be repeated verbatim below
  unless switched off by setting 'verbatim_writeout .false.' .
  in the first line of geometry.in .
  -----------------------------------------------------------------------
  
  #
  # temporary structure-file for finite-difference calculation of forces
  # displacement  -0.0025 of \# atom     0 direction     0
  #
  atom   -0.00250000   -0.00000000    0.04235921   O
  atom    0.00000000    0.00000000    1.16514079   O
  
  -----------------------------------------------------------------------
  Completed first pass over input file geometry.in .
  -----------------------------------------------------------------------
  

  Basic array size parameters:
  | Number of species                 :        1
  | Number of atoms                   :        2
  | Max. basis fn. angular momentum   :        4
  | Max. atomic/ionic basis occupied n:        2
  | Max. number of basis fn. types    :        2
  | Max. radial fns per species/type  :        8
  | Max. logarithmic grid size        :     1301
  | Max. radial integration grid size :       73
  | Max. angular integration grid size:      590
  | Max. angular grid division number :        8
  | Radial grid for Hartree potential :     1301
  | Number of spin channels           :        1

------------------------------------------------------------
          Reading file control.in.
------------------------------------------------------------
  XC: Using PBE gradient-corrected functionals.
  Charged system requested: Charge =   0.100000E+01.
  Non-relativistic treatment of kinetic energy.
  Spin treatment: No spin polarisation.
  Convergence accuracy of self-consistent charge density:  0.1000E-03
  Convergence accuracy of sum of eigenvalues:  0.1000E-01
  Convergence accuracy of total energy:  0.1000E-07
  Maximum number of s.-c. iterations  :   100
  Restart file specified as : restart
  | Reading information from existing file.
 
  Reading configuration options for species O                   .
  | Found nuclear charge :   8.0000
  | Found atomic mass :    15.9994000000000      amu
  | Found l_max for Hartree potential  :   8
  | Found cutoff potl. onset [A], width [A], scale factor :    4.00000    2.00000    1.00000
  | Threshold for basis-dependent cutoff potential is   0.000000E+00
  | Found data for basic radial integration grid :    36 points, outermost radius =    7.000 A
  | Found multiplier for basic radial grid :   2
  | Found angular grid specification: user-specified.
  | Specified grid contains     6 separate shells.
  | Check grid settings after all constraints further below.
  | Found free-atom valence shell :  2 s   2.000
  | Found free-atom valence shell :  2 p   4.000
  | No ionic wave fns used. Skipping ion_occ.
  | No ionic wave fns used. Skipping ion_occ.
  | Found hydrogenic basis function :  2 p   1.800
  | Found hydrogenic basis function :  3 d   7.600
  | Found hydrogenic basis function :  3 s   6.400
  | Found hydrogenic basis function :  4 f  11.600
  | Found hydrogenic basis function :  3 p   6.200
  | Found hydrogenic basis function :  3 d   5.600
  | Found hydrogenic basis function :  5 g  17.600
  | Found hydrogenic basis function :  1 s   0.750
  Species O                   : Missing cutoff potential type.
  Defaulting to exp(1/x)/(1-x)^2 type cutoff potential.
  Species O : No 'logarithmic' tag. Using default grid for free atom:
  | Default logarithmic grid data [bohr] : 0.1000E-03 0.1000E+03 0.1012E+01
  Species O : On-site basis accuracy parameter (for Gram-Schmidt orthonormalisation) not specified.
  Using default value basis_acc =  0.1000000E-03.
  Species O                   : Using default innermost maximum threshold i_radial=  2 for radial functions.
  Species O                   : Default cutoff onset for free atom density etc. : 0.40000000E+01 AA.
  Species O                   : Basic radial grid will be enhanced according to radial_multiplier =   2, to contain    73 grid points.
  Forces will be computed.
  Cleaning forces before final output.
  Dipole moment will be written out.
 
  Finished reading input file 'control.in'. Consistency checks are next.
 
  Target number of points in a grid batch is not set. Defaulting to  100
  Method for grid partitioning is not set. Defaulting to parallel hash+maxmin partitioning.
  Batch size limit is not set. Defaulting to    200
  By default, will store active basis functions for each batch.
  If in need of memory, prune_basis_once .false. can be used to disable this option.
  communication_type for Hartree potential was not specified.
  Defaulting to calc_hartree .
  Defaulting to Pulay charge density mixer.
  Pulay mixer: Number of relevant iterations not set.
  Defaulting to    8 iterations.
  Pulay mixer: Number of initial linear mixing iterations not set.
  Defaulting to    0 iterations.
  Work space size for distributed Hartree potential not set.
  Defaulting to   0.200000E+03 MB.
  Mixing parameter for charge density mixing has not been set.
  Using default: charge_mix_param =     0.2000.
  Algorithm-dependent basis array size parameters:
  | n_max_pulay                         :        8
  Geometry relaxation not requested: no relaxation will be performed.
  Force calculation: scf convergence accuracy of forces not set.
  Defaulting to  0.1000E-03 eV/A.
  Handling of forces: Unphysical translation and rotation will be removed from forces.
  No accuracy limit for integral partition fn. given. Defaulting to  0.1000E-14.
  No threshold value for u(r) in integrations given. Defaulting to  0.1000E-05.
  No occupation type (smearing scheme) given. Defaulting to Gaussian broadening, width =  0.1000E-01 eV.
  No accuracy for occupation numbers given. Defaulting to  0.1000E-07.
  No threshold value for occupation numbers given. Defaulting to  0.0000E+00.
  No accuracy for fermi level given. Defaulting to  0.1000E-19.
  Maximum # of iterations to find E_F not set. Defaulting to  200.
  Preferred method for the eigenvalue solver ('KS_method') not specified in 'control.in'.
  Calling blacs routine to test compilation state
  The best choice would be 'elpa', but your version of FHI-aims is compiled without scalapack support.
  Defaulting to 'lapack_fast' instead (serial solution, time will not improve with more CPUs).
  Will not use alltoall communication since running on < 1024 CPUs.
  Threshold for basis singularities not set.
  Default threshold for basis singularities:  0.1000E-04
  partition_type (choice of integration weights) for integrals was not specified.
  | Using a version of the partition function of Stratmann and coworkers ('stratmann_smoother').
  | At each grid point, the set of atoms used to build the partition table is smoothly restricted to
  | only those atoms whose free-atom density would be non-zero at that grid point.
  Partitioning for Hartree potential was not defined. Using partition_type for integrals.
  | Adjusted default value of keyword multip_moments_threshold to:       0.10000000E-11
  | This value may affect high angular momentum components of the Hartree potential in periodic systems.
  No q(lm)/r^(l+1) cutoff set for long-range Hartree potential.
  | Using default value of  0.100000E-09 .
  | Verify using the multipole_threshold keyword.
  Defaulting to new monopole extrapolation.
  Density update method: automatic selection selected.
------------------------------------------------------------


------------------------------------------------------------
          Reading geometry description geometry.in.
------------------------------------------------------------
 * Warning: Initial charge and total charge of the system are inconsistent.
 * Selected charge in control.in:     1.0000* Sum of initial charges in geometry.in:     0.0000
  Input structure read successfully.
  The structure contains        2 atoms,  and a total of         15.000 electrons.

  Input geometry:
  | No unit cell requested.
  | Atomic structure:
  |       Atom                x [A]            y [A]            z [A]
  |    1: Species O             -0.002500         0.000000         0.042359
  |    2: Species O              0.000000         0.000000         1.165141
  |

  | The smallest distance between any two atoms is         1.12278436 AA.
  |
  | The first atom of this pair is atom number                      1 .
  | The second atom of this pair is atom number                     2 .

  Number of empty states per atom not set in control.in - providing a guess from actual geometry.
  | Total number of empty states used during s.c.f. cycle:        6
  If you use a very high smearing, use empty_states (per atom!) in control.in to increase this value.

  Structure-dependent array size parameters: 
  | Maximum number of distinct radial functions  :       11
  | Maximum number of basis functions            :       78
  | Number of Kohn-Sham states (occupied + empty):       14
------------------------------------------------------------

------------------------------------------------------------
          Preparing all fixed parts of the calculation.
------------------------------------------------------------
  Determining machine precision:
    2.225073858507201E-308
  Setting up grids for atomic and cluster calculations.

  Creating wave function, potential, and density for free atoms.

  Species: O

  List of occupied orbitals and eigenvalues:
    n    l              occ      energy [Ha]    energy [eV]
    1    0           2.0000       -18.898576      -514.2564
    2    0           2.0000        -0.878795       -23.9132
    2    1           4.0000        -0.332075        -9.0362

  Creating fixed part of basis set: Ionic, confined, hydrogenic.
 
  O                    hydrogenic:
 
  List of hydrogenic basis orbitals: 
    n    l      effective z      eigenvalue [eV]  inner max. [A]     outer max. [A]     outer radius [A]   
    2    1         1.800000       -11.0118           1.178562           1.178562           5.432602
    3    2         7.600000       -87.3183           0.624125           0.624125           4.634338
    3    0         6.400000       -61.9210           0.061167           1.081902           5.110480
    4    3        11.600000      -114.4239           0.731631           0.731631           4.522403
    3    1         6.200000       -58.1114           0.255680           1.030270           5.110480
    3    2         5.600000       -47.4083           0.847233           0.847233           5.173339
    5    4        17.600000      -168.5800           0.749740           0.749740           4.051222
    1    0         0.750000        -7.6499           0.705284           0.705284           5.366593
 

  Adding cutoff potential to free-atom effective potential.
  Creating atomic-like basis functions for current effective potential.

  Species O                   :

  List of atomic basis orbitals and eigenvalues:
    n    l      energy [Ha]    energy [eV]    outer radius [A]
    1    0       -18.898576      -514.2564       1.415765
    2    0        -0.878795       -23.9132       5.048385
    2    1        -0.332075        -9.0362       5.301386

  Assembling full basis from fixed parts.
  | Species O :   atomic orbital   1 s accepted.
  | Species O :   atomic orbital   2 s accepted.
  | Species O :    hydro orbital   3 s accepted.
  | Species O :    hydro orbital   1 s accepted.
  | Species O :   atomic orbital   2 p accepted.
  | Species O :    hydro orbital   2 p accepted.
  | Species O :    hydro orbital   3 p accepted.
  | Species O :    hydro orbital   3 d accepted.
  | Species O :    hydro orbital   3 d accepted.
  | Species O :    hydro orbital   4 f accepted.
  | Species O :    hydro orbital   5 g accepted.
 
  Basis size parameters after reduction:
  | Total number of radial functions:       11
  | Total number of basis functions :       78
 
  Testing on-site integration grid accuracy.
  |  Species  Function  <phi|h_atom|phi> (log., in eV)  <phi|h_atom|phi> (rad., in eV)
           1        1               -514.2564144315               -514.2564099626
           1        2                -23.9132357102                -23.9132356433
           1        3                 17.5398579759                 17.5398338425
           1        4                 14.5207278950                 14.5207740449
           1        5                 -9.0362392718                 -9.0362394845
           1        6                  7.9056275927                  7.9056237490
           1        7                 33.4201658992                 33.4201612015
           1        8                 45.8231952720                 45.8231953152
           1        9                 52.1937595491                 52.1937593440
           1       10                 85.4062894308                 85.4062894578
           1       11                142.0975701139                142.0975701391

  Preparing densities etc. for the partition functions (integrals / Hartree potential).

  Preparations completed.
  max(cpu_time)          :      0.147 s.
  Wall clock time (cpu1) :      0.167 s.
------------------------------------------------------------

------------------------------------------------------------
          Begin self-consistency loop: Initialization.

          Date     :  20190722, Time     :  144504.711
------------------------------------------------------------

  Initializing index lists of integration centers etc. from given atomic structure:
  | Number of centers in hartree potential         :         2
  | Number of centers in hartree multipole         :         2
  | Number of centers in electron density summation:         2
  | Number of centers in basis integrals           :         2
  | Number of centers in integrals                 :         2
  | Number of centers in hamiltonian               :         2
  Partitioning the integration grid into batches with parallel hashing+maxmin method.
  | Number of batches:      817
  | Maximal batch size:     116
  | Minimal batch size:      49
  | Average batch size:      65.190
  | Standard deviation of batch sizes:      20.172

  Integration load balanced across     4 MPI tasks.
  Work distribution over tasks is as follows:
  Task     0 has      13319 integration points.
  Task     1 has      13342 integration points.
  Task     2 has      13315 integration points.
  Task     3 has      13284 integration points.
  Initializing partition tables, free-atom densities, potentials, etc. across the integration grid (initialize_grid_storage).
  | initialize_grid_storage: Actual outermost partition radius vs. multipole_radius_free
  | (-- VB: in principle, multipole_radius_free should be larger, hence this output)
  | Species        1: Confinement radius =              6.000000000000000 AA, multipole_radius_free =              6.064445521808699 AA.
  | Species        1: outer_partition_radius set to              6.064445521808699 AA .
  | Original list of interatomic distances with           2 x          2 entries is created.
  | Net number of integration points:    53260
  | of which are non-zero points    :    49990
  Obtaining max. number of non-zero basis functions in each batch (get_n_compute_maxes).
  | Maximal number of non-zero basis functions:       78 in task     0
  | Maximal number of non-zero basis functions:       78 in task     1
  | Maximal number of non-zero basis functions:       78 in task     2
  | Maximal number of non-zero basis functions:       78 in task     3
  Selecting the method for density update.
  Loop over occupied states selected for charge density update.
  Integrating Hamiltonian matrix: batch-based integration.
  Time summed over all CPUs for integration: real work        0.174 s, elapsed        0.187 s
  Integrating overlap matrix.
  Time summed over all CPUs for integration: real work        0.064 s, elapsed        0.073 s

  Reading cluster restart information from file restart
  Writing Kohn-Sham eigenvalues.

  State    Occupation    Eigenvalue [Ha]    Eigenvalue [eV]
      1       2.00000         -18.889873         -514.01961
      2       2.00000         -18.889654         -514.01363
      3       2.00000          -1.267293          -34.48480
      4       2.00000          -0.701439          -19.08712
      5       2.00000          -0.502548          -13.67503
      6       2.00000          -0.502548          -13.67503
      7       2.00000          -0.494805          -13.46433
      8       1.00000          -0.186832           -5.08397
      9       1.00000          -0.186832           -5.08397
     10       0.00000           0.098748            2.68707
     11       0.00000           0.105369            2.86723
     12       0.00000           0.133112            3.62217
     13       0.00000           0.000000            0.00000
     14       0.00000           0.000000            0.00000

  Highest occupied state (VBM) at     -5.08396592 eV
  | Occupation number:      1.00000352

  Lowest unoccupied state (CBM) at    -5.08396586 eV
  | Occupation number:      0.99999648

  Overall HOMO-LUMO gap:      0.00000006 eV.
*** get_ev_sum_p0 expected pure occ_numbers
*** sum(occ_numbers) =  1.6000000000208455E+01 instead of  1.5000000000000000E+01
  Calculating total energy contributions from superposition of free atom densities.
*** get_entropy_correction expected pure occ_numbers
*** sum(occ_numbers) =  1.6000000000208455E+01 instead of  1.5000000000000000E+01
*** get_penalty_energy expected pure occ_numbers
*** sum(occ_numbers) =  1.6000000000208455E+01 instead of  1.5000000000000000E+01

  Total energy components:
  | Sum of eigenvalues            :         -82.86998559 Ha       -2255.00704136 eV
  | XC energy correction          :         -16.82076999 Ha        -457.71643990 eV
  | XC potential correction       :          21.62723248 Ha         588.50693867 eV
  | Free-atom electrostatic energy:         -71.50995472 Ha       -1945.88487358 eV
  | Hartree energy correction     :           0.00000000 Ha           0.00000000 eV
  | Entropy correction            :          -0.00020734 Ha          -0.00564190 eV
  | ---------------------------
  | Total energy                  :        -149.57347783 Ha       -4070.10141618 eV
  | Total energy, T -> 0          :        -149.57368516 Ha       -4070.10705807 eV  <-- do not rely on this value for anything but (periodic) metals
  | Electronic free energy        :        -149.57389250 Ha       -4070.11269997 eV

  Derived energy quantities:
  | Kinetic energy                :         150.56069444 Ha        4096.96494688 eV
  | Electrostatic energy          :        -283.31340227 Ha       -7709.34992316 eV
  | Energy correction for multipole
  | error in Hartree potential    :           0.00000000 Ha           0.00000000 eV
  | Sum of eigenvalues per atom                           :       -1127.50352068 eV
  | Total energy (T->0) per atom                          :       -2035.05352904 eV  <-- do not rely on this value for anything but (periodic) metals
  | Electronic free energy per atom                       :       -2035.05634998 eV
  Initialize hartree_potential_storage
  Max. number of atoms included in rho_multipole:            2

  End scf initialization - timings             :  max(cpu_time)    wall_clock(cpu1)
  | Time for scf. initialization               :        0.140 s           0.140 s
  | Boundary condition initialization          :        0.000 s           0.001 s
  | Integration                                :        0.066 s           0.067 s
  | Solution of K.-S. eqns.                    :        0.001 s           0.001 s
  | Grid partitioning                          :        0.025 s           0.025 s
  | Preloading free-atom quantities on grid    :        0.018 s           0.019 s
  | Free-atom superposition energy             :        0.011 s           0.011 s
  | Total energy evaluation                    :        0.000 s           0.002 s
------------------------------------------------------------

------------------------------------------------------------
          Initial SCF-cycle to compute last known
          density from restart information.

  Date     :  20190722, Time     :  144504.852
------------------------------------------------------------
*** scf_solver:charge expected kweighted occ_numbers
*** sum(occ_numbers) =  1.6000000000208455E+01 instead of  1.5000000000000000E+01
  Evaluating new KS density.
*** update_density_and_forces_p2 expected kweighted occ_numbers
*** sum(occ_numbers) =  1.6000000000208455E+01 instead of  1.5000000000000000E+01
  Integration grid: deviation in total charge (<rho> - N_e) =   1.000000E+00

  Evaluating partitioned Hartree potential by multipole expansion.
  | Analytical far-field extrapolation by fixed multipoles:
  | Hartree multipole sum: apparent total charge =  -0.177415E-06
  Summing up the Hartree potential.
  Time summed over all CPUs for potential: real work        0.104 s, elapsed        0.110 s
  | RMS charge density error from multipole expansion :   0.646460E-03

  Integrating Hamiltonian matrix: batch-based integration.
  Time summed over all CPUs for integration: real work        0.174 s, elapsed        0.185 s

  Updating Kohn-Sham eigenvalues, eigenvectors, occupation numbers, and Fermi level.
  Solving generalized eigenproblem
  Updating Kohn-Sham eigenvalues and eigenfunctions.
  Transforming overlap matrix and checking for singularities.
  Overlap matrix is nonsingular:
  | Lowest eigenvalue:  0.185756E-03
  Solving real generalised eigenvalue problem by standard LAPACK (fast)
  Determining occupation numbers for Kohn-Sham eigenstates.
  | Chemical potential (Fermi level) in eV                 : -.50887374E+01
  | Error in electron count due to remaining E_F inaccuracy: 0.15566215E-10
  | Maximum occupation number of highest empty state:  0.00E+00

  Highest occupied state (VBM) at    -13.46433325 eV
  | Occupation number:      2.00000000

  Lowest unoccupied state (CBM) at    -5.08396995 eV
  | Occupation number:      0.50017131

  Overall HOMO-LUMO gap:      8.38036330 eV.

  Total energy components:
  | Sum of eigenvalues            :         -82.68315468 Ha       -2249.92311355 eV
  | XC energy correction          :         -16.91595021 Ha        -460.30642543 eV
  | XC potential correction       :          21.75097684 Ha         591.87419391 eV
  | Free-atom electrostatic energy:         -71.50995472 Ha       -1945.88487358 eV
  | Hartree energy correction     :          -0.65623128 Ha         -17.85696167 eV
  | Entropy correction            :          -0.00016515 Ha          -0.00449404 eV
  | ---------------------------
  | Total energy                  :        -150.01431406 Ha       -4082.09718031 eV
  | Total energy, T -> 0          :        -150.01447921 Ha       -4082.10167435 eV  <-- do not rely on this value for anything but (periodic) metals
  | Electronic free energy        :        -150.01464436 Ha       -4082.10616839 eV

  Derived energy quantities:
  | Kinetic energy                :         150.39445878 Ha        4092.44144462 eV
  | Electrostatic energy          :        -283.49282263 Ha       -7714.23219951 eV
  | Energy correction for multipole
  | error in Hartree potential    :          -0.00059256 Ha          -0.01612449 eV
  | Sum of eigenvalues per atom                           :       -1124.96155677 eV
  | Total energy (T->0) per atom                          :       -2041.05083717 eV  <-- do not rely on this value for anything but (periodic) metals
  | Electronic free energy per atom                       :       -2041.05308419 eV

  Self-consistency convergence accuracy:
  | Change of charge density      :  0.1358E+00
  | Change of sum of eigenvalues  :  0.5084E+01 eV
  | Change of total energy        : -0.1200E+02 eV

  End self-consistency iteration #     0       :  max(cpu_time)    wall_clock(cpu1)
  | Time for this iteration                    :        0.129 s           0.127 s
  | Charge density update                      :        0.036 s           0.033 s
  | Density mixing                             :        0.000 s           0.000 s
  | Hartree multipole update                   :        0.005 s           0.005 s
  | Hartree multipole summation                :        0.029 s           0.029 s
  | Integration                                :        0.047 s           0.047 s
  | Solution of K.-S. eqns.                    :        0.009 s           0.010 s
  | Total energy evaluation                    :        0.000 s           0.002 s
------------------------------------------------------------

------------------------------------------------------------
          Begin self-consistency iteration #    1

  Date     :  20190722, Time     :  144504.989
------------------------------------------------------------
  Evaluating new KS density.
  Integration grid: deviation in total charge (<rho> - N_e) =   1.554490E-11
  Pulay mixing of updated and previous charge densities.

  Evaluating partitioned Hartree potential by multipole expansion.
  | Analytical far-field extrapolation by fixed multipoles:
  | Hartree multipole sum: apparent total charge =   0.200000E+00
  Summing up the Hartree potential.
  Time summed over all CPUs for potential: real work        0.100 s, elapsed        0.112 s
  | RMS charge density error from multipole expansion :   0.568934E-03

  Integrating Hamiltonian matrix: batch-based integration.
  Time summed over all CPUs for integration: real work        0.172 s, elapsed        0.189 s

  Updating Kohn-Sham eigenvalues, eigenvectors, occupation numbers, and Fermi level.
  Solving generalized eigenproblem
  Updating Kohn-Sham eigenvalues and eigenfunctions.
  Solving real generalised eigenvalue problem by standard LAPACK (fast)
  Determining occupation numbers for Kohn-Sham eigenstates.
  | Chemical potential (Fermi level) in eV                 : -.81702212E+01
  | Error in electron count due to remaining E_F inaccuracy: 0.78443918E-11
  | Maximum occupation number of highest empty state:  0.00E+00

  Writing Kohn-Sham eigenvalues.

  State    Occupation    Eigenvalue [Ha]    Eigenvalue [eV]
      1       2.00000         -19.044718         -518.23316
      2       2.00000         -19.044500         -518.22721
      3       2.00000          -1.391441          -37.86304
      4       2.00000          -0.812974          -22.12216
      5       2.00000          -0.616513          -16.77617
      6       2.00000          -0.616512          -16.77613
      7       2.00000          -0.606202          -16.49561
      8       0.50153          -0.300075           -8.16547
      9       0.49847          -0.300074           -8.16543
     10       0.00000           0.042790            1.16439
     11       0.00000           0.050113            1.36365
     12       0.00000           0.078170            2.12711
     13       0.00000           0.078170            2.12712
     14       0.00000           0.157547            4.28708

  Highest occupied state (VBM) at    -16.49560638 eV
  | Occupation number:      2.00000000

  Lowest unoccupied state (CBM) at    -8.16546875 eV
  | Occupation number:      0.50152502

  Overall HOMO-LUMO gap:      8.33013763 eV.

  Total energy components:
  | Sum of eigenvalues            :         -84.56579681 Ha       -2301.15241263 eV
  | XC energy correction          :         -16.76353528 Ha        -456.15900413 eV
  | XC potential correction       :          21.55138843 Ha         586.44311695 eV
  | Free-atom electrostatic energy:         -71.50995472 Ha       -1945.88487358 eV
  | Hartree energy correction     :           1.36996806 Ha          37.27872756 eV
  | Entropy correction            :          -0.00016515 Ha          -0.00449403 eV
  | ---------------------------
  | Total energy                  :        -149.91793034 Ha       -4079.47444583 eV
  | Total energy, T -> 0          :        -149.91809549 Ha       -4079.47893986 eV  <-- do not rely on this value for anything but (periodic) metals
  | Electronic free energy        :        -149.91826064 Ha       -4079.48343388 eV

  Derived energy quantities:
  | Kinetic energy                :         149.84166542 Ha        4077.39917177 eV
  | Electrostatic energy          :        -282.99606047 Ha       -7700.71461347 eV
  | Energy correction for multipole
  | error in Hartree potential    :          -0.00047716 Ha          -0.01298415 eV
  | Sum of eigenvalues per atom                           :       -1150.57620632 eV
  | Total energy (T->0) per atom                          :       -2039.73946993 eV  <-- do not rely on this value for anything but (periodic) metals
  | Electronic free energy per atom                       :       -2039.74171694 eV

  Self-consistency convergence accuracy:
  | Change of charge density      :  0.2168E+00
  | Change of sum of eigenvalues  : -0.5123E+02 eV
  | Change of total energy        :  0.2623E+01 eV

  End self-consistency iteration #     1       :  max(cpu_time)    wall_clock(cpu1)
  | Time for this iteration                    :        0.128 s           0.121 s
  | Charge density update                      :        0.042 s           0.035 s
  | Density mixing                             :        0.002 s           0.001 s
  | Hartree multipole update                   :        0.005 s           0.005 s
  | Hartree multipole summation                :        0.029 s           0.029 s
  | Integration                                :        0.048 s           0.048 s
  | Solution of K.-S. eqns.                    :        0.001 s           0.001 s
  | Total energy evaluation                    :        0.000 s           0.000 s
------------------------------------------------------------

------------------------------------------------------------
          Begin self-consistency iteration #    2

  Date     :  20190722, Time     :  144505.111
------------------------------------------------------------
  Evaluating new KS density.
  Integration grid: deviation in total charge (<rho> - N_e) =   7.847945E-12
  Pulay mixing of updated and previous charge densities.

  Evaluating partitioned Hartree potential by multipole expansion.
  | Analytical far-field extrapolation by fixed multipoles:
  | Hartree multipole sum: apparent total charge =   0.551816E+00
  Summing up the Hartree potential.
  Time summed over all CPUs for potential: real work        0.104 s, elapsed        0.118 s
  | RMS charge density error from multipole expansion :   0.499240E-03

  Integrating Hamiltonian matrix: batch-based integration.
  Time summed over all CPUs for integration: real work        0.175 s, elapsed        0.201 s

  Updating Kohn-Sham eigenvalues, eigenvectors, occupation numbers, and Fermi level.
  Solving generalized eigenproblem
  Updating Kohn-Sham eigenvalues and eigenfunctions.
  Solving real generalised eigenvalue problem by standard LAPACK (fast)
  Determining occupation numbers for Kohn-Sham eigenstates.
  | Chemical potential (Fermi level) in eV                 : -.13091996E+02
  | Error in electron count due to remaining E_F inaccuracy: -.68034467E-12
  | Maximum occupation number of highest empty state:  0.00E+00

  Highest occupied state (VBM) at    -21.31570125 eV
  | Occupation number:      2.00000000

  Lowest unoccupied state (CBM) at   -13.08757270 eV
  | Occupation number:      0.53164523

  Overall HOMO-LUMO gap:      8.22812855 eV.

  Total energy components:
  | Sum of eigenvalues            :         -87.47609192 Ha       -2380.34557166 eV
  | XC energy correction          :         -16.54917263 Ha        -450.32589967 eV
  | XC potential correction       :          21.27065038 Ha         578.80384599 eV
  | Free-atom electrostatic energy:         -71.50995472 Ha       -1945.88487358 eV
  | Hartree energy correction     :           4.43972852 Ha         120.81115991 eV
  | Entropy correction            :          -0.00016495 Ha          -0.00448847 eV
  | ---------------------------
  | Total energy                  :        -149.82484037 Ha       -4076.94133901 eV
  | Total energy, T -> 0          :        -149.82500532 Ha       -4076.94582748 eV  <-- do not rely on this value for anything but (periodic) metals
  | Electronic free energy        :        -149.82517027 Ha       -4076.95031594 eV

  Derived energy quantities:
  | Kinetic energy                :         149.14692359 Ha        4058.49428490 eV
  | Electrostatic energy          :        -282.42259133 Ha       -7685.10972424 eV
  | Energy correction for multipole
  | error in Hartree potential    :          -0.00037145 Ha          -0.01010764 eV
  | Sum of eigenvalues per atom                           :       -1190.17278583 eV
  | Total energy (T->0) per atom                          :       -2038.47291374 eV  <-- do not rely on this value for anything but (periodic) metals
  | Electronic free energy per atom                       :       -2038.47515797 eV

  Self-consistency convergence accuracy:
  | Change of charge density      :  0.1326E+00
  | Change of sum of eigenvalues  : -0.7919E+02 eV
  | Change of total energy        :  0.2533E+01 eV

  End self-consistency iteration #     2       :  max(cpu_time)    wall_clock(cpu1)
  | Time for this iteration                    :        0.124 s           0.124 s
  | Charge density update                      :        0.033 s           0.033 s
  | Density mixing                             :        0.002 s           0.002 s
  | Hartree multipole update                   :        0.005 s           0.005 s
  | Hartree multipole summation                :        0.031 s           0.031 s
  | Integration                                :        0.050 s           0.050 s
  | Solution of K.-S. eqns.                    :        0.001 s           0.001 s
  | Total energy evaluation                    :        0.000 s           0.001 s
------------------------------------------------------------

------------------------------------------------------------
          Begin self-consistency iteration #    3

  Date     :  20190722, Time     :  144505.236
------------------------------------------------------------
  Evaluating new KS density.
  Integration grid: deviation in total charge (<rho> - N_e) =  -7.176482E-13
  Pulay mixing of updated and previous charge densities.

  Evaluating partitioned Hartree potential by multipole expansion.
  | Analytical far-field extrapolation by fixed multipoles:
  | Hartree multipole sum: apparent total charge =   0.814240E+00
  Summing up the Hartree potential.
  Time summed over all CPUs for potential: real work        0.098 s, elapsed        0.107 s
  | RMS charge density error from multipole expansion :   0.477525E-03

  Integrating Hamiltonian matrix: batch-based integration.
  Time summed over all CPUs for integration: real work        0.170 s, elapsed        0.181 s

  Updating Kohn-Sham eigenvalues, eigenvectors, occupation numbers, and Fermi level.
  Solving generalized eigenproblem
  Updating Kohn-Sham eigenvalues and eigenfunctions.
  Solving real generalised eigenvalue problem by standard LAPACK (fast)
  Determining occupation numbers for Kohn-Sham eigenstates.
  | Chemical potential (Fermi level) in eV                 : -.15852532E+02
  | Error in electron count due to remaining E_F inaccuracy: -.51793236E-10
  | Maximum occupation number of highest empty state:  0.00E+00

  Highest occupied state (VBM) at    -24.03113147 eV
  | Occupation number:      2.00000000

  Lowest unoccupied state (CBM) at   -15.85249679 eV
  | Occupation number:      0.99601369

  Overall HOMO-LUMO gap:      8.17863467 eV.

  Total energy components:
  | Sum of eigenvalues            :         -88.97548029 Ha       -2421.14600511 eV
  | XC energy correction          :         -16.47511341 Ha        -448.31064564 eV
  | XC potential correction       :          21.17355269 Ha         576.16168344 eV
  | Free-atom electrostatic energy:         -71.50995472 Ha       -1945.88487358 eV
  | Hartree energy correction     :           5.98846430 Ha         162.95440468 eV
  | Entropy correction            :          -0.00010531 Ha          -0.00286561 eV
  | ---------------------------
  | Total energy                  :        -149.79853143 Ha       -4076.22543621 eV
  | Total energy, T -> 0          :        -149.79863674 Ha       -4076.22830181 eV  <-- do not rely on this value for anything but (periodic) metals
  | Electronic free energy        :        -149.79874205 Ha       -4076.23116742 eV

  Derived energy quantities:
  | Kinetic energy                :         149.23444220 Ha        4060.87578747 eV
  | Electrostatic energy          :        -282.55786022 Ha       -7688.79057804 eV
  | Energy correction for multipole
  | error in Hartree potential    :          -0.00045784 Ha          -0.01245846 eV
  | Sum of eigenvalues per atom                           :       -1210.57300256 eV
  | Total energy (T->0) per atom                          :       -2038.11415091 eV  <-- do not rely on this value for anything but (periodic) metals
  | Electronic free energy per atom                       :       -2038.11558371 eV

  Self-consistency convergence accuracy:
  | Change of charge density      :  0.5988E-01
  | Change of sum of eigenvalues  : -0.4080E+02 eV
  | Change of total energy        :  0.7159E+00 eV

  End self-consistency iteration #     3       :  max(cpu_time)    wall_clock(cpu1)
  | Time for this iteration                    :        0.114 s           0.114 s
  | Charge density update                      :        0.033 s           0.032 s
  | Density mixing                             :        0.002 s           0.002 s
  | Hartree multipole update                   :        0.004 s           0.005 s
  | Hartree multipole summation                :        0.028 s           0.027 s
  | Integration                                :        0.046 s           0.045 s
  | Solution of K.-S. eqns.                    :        0.001 s           0.002 s
  | Total energy evaluation                    :        0.000 s           0.001 s
------------------------------------------------------------

------------------------------------------------------------
          Begin self-consistency iteration #    4

  Date     :  20190722, Time     :  144505.351
------------------------------------------------------------
  Evaluating new KS density.
  Integration grid: deviation in total charge (<rho> - N_e) =  -5.176304E-11
  Pulay mixing of updated and previous charge densities.

  Evaluating partitioned Hartree potential by multipole expansion.
  | Analytical far-field extrapolation by fixed multipoles:
  | Hartree multipole sum: apparent total charge =   0.102181E+01
  Summing up the Hartree potential.
  Time summed over all CPUs for potential: real work        0.098 s, elapsed        0.104 s
  | RMS charge density error from multipole expansion :   0.484835E-03

  Integrating Hamiltonian matrix: batch-based integration.
  Time summed over all CPUs for integration: real work        0.187 s, elapsed        0.205 s

  Updating Kohn-Sham eigenvalues, eigenvectors, occupation numbers, and Fermi level.
  Solving generalized eigenproblem
  Updating Kohn-Sham eigenvalues and eigenfunctions.
  Solving real generalised eigenvalue problem by standard LAPACK (fast)
  Determining occupation numbers for Kohn-Sham eigenstates.
  | Chemical potential (Fermi level) in eV                 : -.17978862E+02
  | Error in electron count due to remaining E_F inaccuracy: -.74343749E-08
  | Maximum occupation number of highest empty state:  0.00E+00

  Highest occupied state (VBM) at    -26.13290459 eV
  | Occupation number:      2.00000000

  Lowest unoccupied state (CBM) at   -17.97541520 eV
  | Occupation number:      0.62594751

  Overall HOMO-LUMO gap:      8.15748939 eV.

  Total energy components:
  | Sum of eigenvalues            :         -90.12675843 Ha       -2452.47387729 eV
  | XC energy correction          :         -16.42245543 Ha        -446.87774920 eV
  | XC potential correction       :          21.10460355 Ha         574.28548189 eV
  | Free-atom electrostatic energy:         -71.50995472 Ha       -1945.88487358 eV
  | Hartree energy correction     :           7.16096151 Ha         194.85967714 eV
  | Entropy correction            :          -0.00016189 Ha          -0.00440523 eV
  | ---------------------------
  | Total energy                  :        -149.79360352 Ha       -4076.09134104 eV
  | Total energy, T -> 0          :        -149.79376541 Ha       -4076.09574628 eV  <-- do not rely on this value for anything but (periodic) metals
  | Electronic free energy        :        -149.79392730 Ha       -4076.10015151 eV

  Derived energy quantities:
  | Kinetic energy                :         149.30466522 Ha        4062.78665300 eV
  | Electrostatic energy          :        -282.67581331 Ha       -7692.00024485 eV
  | Energy correction for multipole
  | error in Hartree potential    :          -0.00053311 Ha          -0.01450660 eV
  | Sum of eigenvalues per atom                           :       -1226.23693864 eV
  | Total energy (T->0) per atom                          :       -2038.04787314 eV  <-- do not rely on this value for anything but (periodic) metals
  | Electronic free energy per atom                       :       -2038.05007575 eV

  Self-consistency convergence accuracy:
  | Change of charge density      :  0.1763E+00
  | Change of sum of eigenvalues  : -0.3133E+02 eV
  | Change of total energy        :  0.1341E+00 eV

  End self-consistency iteration #     4       :  max(cpu_time)    wall_clock(cpu1)
  | Time for this iteration                    :        0.127 s           0.129 s
  | Charge density update                      :        0.034 s           0.033 s
  | Density mixing                             :        0.002 s           0.002 s
  | Hartree multipole update                   :        0.005 s           0.005 s
  | Hartree multipole summation                :        0.027 s           0.027 s
  | Integration                                :        0.053 s           0.054 s
  | Solution of K.-S. eqns.                    :        0.004 s           0.005 s
  | Total energy evaluation                    :        0.000 s           0.002 s
------------------------------------------------------------

------------------------------------------------------------
          Begin self-consistency iteration #    5

  Date     :  20190722, Time     :  144505.482
------------------------------------------------------------
  Evaluating new KS density.
  Integration grid: deviation in total charge (<rho> - N_e) =  -7.434451E-09
  Pulay mixing of updated and previous charge densities.

  Evaluating partitioned Hartree potential by multipole expansion.
  | Analytical far-field extrapolation by fixed multipoles:
  | Hartree multipole sum: apparent total charge =   0.993429E+00
  Summing up the Hartree potential.
  Time summed over all CPUs for potential: real work        0.099 s, elapsed        0.105 s
  | RMS charge density error from multipole expansion :   0.482541E-03

  Integrating Hamiltonian matrix: batch-based integration.
  Time summed over all CPUs for integration: real work        0.169 s, elapsed        0.177 s

  Updating Kohn-Sham eigenvalues, eigenvectors, occupation numbers, and Fermi level.
  Solving generalized eigenproblem
  Updating Kohn-Sham eigenvalues and eigenfunctions.
  Solving real generalised eigenvalue problem by standard LAPACK (fast)
  Determining occupation numbers for Kohn-Sham eigenstates.
  | Chemical potential (Fermi level) in eV                 : -.17479170E+02
  | Error in electron count due to remaining E_F inaccuracy: -.75115913E-09
  | Maximum occupation number of highest empty state:  0.00E+00

  Highest occupied state (VBM) at    -25.64661516 eV
  | Occupation number:      2.00000000

  Lowest unoccupied state (CBM) at   -17.47519252 eV
  | Occupation number:      0.57374033

  Overall HOMO-LUMO gap:      8.17142264 eV.

  Total energy components:
  | Sum of eigenvalues            :         -89.82260727 Ha       -2444.19750335 eV
  | XC energy correction          :         -16.44797825 Ha        -447.57226050 eV
  | XC potential correction       :          21.13803059 Ha         575.19507794 eV
  | Free-atom electrostatic energy:         -71.50995472 Ha       -1945.88487358 eV
  | Hartree energy correction     :           6.84940241 Ha         186.38172256 eV
  | Entropy correction            :          -0.00016404 Ha          -0.00446372 eV
  | ---------------------------
  | Total energy                  :        -149.79310725 Ha       -4076.07783693 eV
  | Total energy, T -> 0          :        -149.79327129 Ha       -4076.08230066 eV  <-- do not rely on this value for anything but (periodic) metals
  | Electronic free energy        :        -149.79343533 Ha       -4076.08676438 eV

  Derived energy quantities:
  | Kinetic energy                :         149.43785643 Ha        4066.41097015 eV
  | Electrostatic energy          :        -282.78298543 Ha       -7694.91654659 eV
  | Energy correction for multipole
  | error in Hartree potential    :          -0.00055373 Ha          -0.01506764 eV
  | Sum of eigenvalues per atom                           :       -1222.09875167 eV
  | Total energy (T->0) per atom                          :       -2038.04115033 eV  <-- do not rely on this value for anything but (periodic) metals
  | Electronic free energy per atom                       :       -2038.04338219 eV

  Self-consistency convergence accuracy:
  | Change of charge density      :  0.4827E-01
  | Change of sum of eigenvalues  :  0.8276E+01 eV
  | Change of total energy        :  0.1350E-01 eV

  End self-consistency iteration #     5       :  max(cpu_time)    wall_clock(cpu1)
  | Time for this iteration                    :        0.118 s           0.117 s
  | Charge density update                      :        0.035 s           0.035 s
  | Density mixing                             :        0.003 s           0.003 s
  | Hartree multipole update                   :        0.005 s           0.004 s
  | Hartree multipole summation                :        0.027 s           0.027 s
  | Integration                                :        0.045 s           0.045 s
  | Solution of K.-S. eqns.                    :        0.002 s           0.002 s
  | Total energy evaluation                    :        0.000 s           0.000 s
------------------------------------------------------------

------------------------------------------------------------
          Begin self-consistency iteration #    6

  Date     :  20190722, Time     :  144505.601
------------------------------------------------------------
  Evaluating new KS density.
  Integration grid: deviation in total charge (<rho> - N_e) =  -7.510579E-10
  Pulay mixing of updated and previous charge densities.

  Evaluating partitioned Hartree potential by multipole expansion.
  | Analytical far-field extrapolation by fixed multipoles:
  | Hartree multipole sum: apparent total charge =   0.998725E+00
  Summing up the Hartree potential.
  Time summed over all CPUs for potential: real work        0.100 s, elapsed        0.105 s
  | RMS charge density error from multipole expansion :   0.493867E-03

  Integrating Hamiltonian matrix: batch-based integration.
  Time summed over all CPUs for integration: real work        0.171 s, elapsed        0.183 s

  Updating Kohn-Sham eigenvalues, eigenvectors, occupation numbers, and Fermi level.
  Solving generalized eigenproblem
  Updating Kohn-Sham eigenvalues and eigenfunctions.
  Solving real generalised eigenvalue problem by standard LAPACK (fast)
  Determining occupation numbers for Kohn-Sham eigenstates.
  | Chemical potential (Fermi level) in eV                 : -.17452864E+02
  | Error in electron count due to remaining E_F inaccuracy: -.20733459E-09
  | Maximum occupation number of highest empty state:  0.00E+00

  Highest occupied state (VBM) at    -25.61437878 eV
  | Occupation number:      2.00000000

  Lowest unoccupied state (CBM) at   -17.45282730 eV
  | Occupation number:      0.99586612

  Overall HOMO-LUMO gap:      8.16155147 eV.

  Total energy components:
  | Sum of eigenvalues            :         -89.80129218 Ha       -2443.61749016 eV
  | XC energy correction          :         -16.45277840 Ha        -447.70287916 eV
  | XC potential correction       :          21.14441897 Ha         575.36891454 eV
  | Free-atom electrostatic energy:         -71.50995472 Ha       -1945.88487358 eV
  | Hartree energy correction     :           6.82614810 Ha         185.74894069 eV
  | Entropy correction            :          -0.00010536 Ha          -0.00286710 eV
  | ---------------------------
  | Total energy                  :        -149.79345824 Ha       -4076.08738767 eV
  | Total energy, T -> 0          :        -149.79356360 Ha       -4076.09025477 eV  <-- do not rely on this value for anything but (periodic) metals
  | Electronic free energy        :        -149.79366896 Ha       -4076.09312187 eV

  Derived energy quantities:
  | Kinetic energy                :         149.45344559 Ha        4066.83517272 eV
  | Electrostatic energy          :        -282.79412542 Ha       -7695.21968122 eV
  | Energy correction for multipole
  | error in Hartree potential    :          -0.00054543 Ha          -0.01484185 eV
  | Sum of eigenvalues per atom                           :       -1221.80874508 eV
  | Total energy (T->0) per atom                          :       -2038.04512739 eV  <-- do not rely on this value for anything but (periodic) metals
  | Electronic free energy per atom                       :       -2038.04656094 eV

  Self-consistency convergence accuracy:
  | Change of charge density      :  0.2629E-01
  | Change of sum of eigenvalues  :  0.5800E+00 eV
  | Change of total energy        : -0.9551E-02 eV

  End self-consistency iteration #     6       :  max(cpu_time)    wall_clock(cpu1)
  | Time for this iteration                    :        0.113 s           0.113 s
  | Charge density update                      :        0.031 s           0.031 s
  | Density mixing                             :        0.003 s           0.003 s
  | Hartree multipole update                   :        0.004 s           0.004 s
  | Hartree multipole summation                :        0.027 s           0.027 s
  | Integration                                :        0.046 s           0.046 s
  | Solution of K.-S. eqns.                    :        0.001 s           0.001 s
  | Total energy evaluation                    :        0.000 s           0.001 s
------------------------------------------------------------

------------------------------------------------------------
          Begin self-consistency iteration #    7

  Date     :  20190722, Time     :  144505.715
------------------------------------------------------------
  Evaluating new KS density.
  Integration grid: deviation in total charge (<rho> - N_e) =  -2.073381E-10
  Pulay mixing of updated and previous charge densities.

  Evaluating partitioned Hartree potential by multipole expansion.
  | Analytical far-field extrapolation by fixed multipoles:
  | Hartree multipole sum: apparent total charge =   0.999449E+00
  Summing up the Hartree potential.
  Time summed over all CPUs for potential: real work        0.096 s, elapsed        0.097 s
  | RMS charge density error from multipole expansion :   0.493970E-03

  Integrating Hamiltonian matrix: batch-based integration.
  Time summed over all CPUs for integration: real work        0.167 s, elapsed        0.167 s

  Updating Kohn-Sham eigenvalues, eigenvectors, occupation numbers, and Fermi level.
  Solving generalized eigenproblem
  Updating Kohn-Sham eigenvalues and eigenfunctions.
  Solving real generalised eigenvalue problem by standard LAPACK (fast)
  Determining occupation numbers for Kohn-Sham eigenstates.
  | Chemical potential (Fermi level) in eV                 : -.17448192E+02
  | Error in electron count due to remaining E_F inaccuracy: -.29103990E-08
  | Maximum occupation number of highest empty state:  0.00E+00

  Highest occupied state (VBM) at    -25.61550374 eV
  | Occupation number:      2.00000000

  Lowest unoccupied state (CBM) at   -17.44423255 eV
  | Occupation number:      0.57553100

  Overall HOMO-LUMO gap:      8.17127119 eV.

  Total energy components:
  | Sum of eigenvalues            :         -89.80076406 Ha       -2443.60311925 eV
  | XC energy correction          :         -16.45306268 Ha        -447.71061474 eV
  | XC potential correction       :          21.14479929 Ha         575.37926353 eV
  | Free-atom electrostatic energy:         -71.50995472 Ha       -1945.88487358 eV
  | Hartree energy correction     :           6.82589613 Ha         185.74208408 eV
  | Entropy correction            :          -0.00016398 Ha          -0.00446223 eV
  | ---------------------------
  | Total energy                  :        -149.79308605 Ha       -4076.07725996 eV
  | Total energy, T -> 0          :        -149.79325003 Ha       -4076.08172219 eV  <-- do not rely on this value for anything but (periodic) metals
  | Electronic free energy        :        -149.79341402 Ha       -4076.08618442 eV

  Derived energy quantities:
  | Kinetic energy                :         149.45554162 Ha        4066.89220855 eV
  | Electrostatic energy          :        -282.79556499 Ha       -7695.25885377 eV
  | Energy correction for multipole
  | error in Hartree potential    :          -0.00054508 Ha          -0.01483250 eV
  | Sum of eigenvalues per atom                           :       -1221.80155963 eV
  | Total energy (T->0) per atom                          :       -2038.04086109 eV  <-- do not rely on this value for anything but (periodic) metals
  | Electronic free energy per atom                       :       -2038.04309221 eV

  Self-consistency convergence accuracy:
  | Change of charge density      :  0.1739E+00
  | Change of sum of eigenvalues  :  0.1437E-01 eV
  | Change of total energy        :  0.1013E-01 eV

  End self-consistency iteration #     7       :  max(cpu_time)    wall_clock(cpu1)
  | Time for this iteration                    :        0.106 s           0.105 s
  | Charge density update                      :        0.030 s           0.030 s
  | Density mixing                             :        0.003 s           0.002 s
  | Hartree multipole update                   :        0.005 s           0.004 s
  | Hartree multipole summation                :        0.025 s           0.025 s
  | Integration                                :        0.042 s           0.042 s
  | Solution of K.-S. eqns.                    :        0.001 s           0.001 s
  | Total energy evaluation                    :        0.000 s           0.000 s
------------------------------------------------------------

------------------------------------------------------------
          Begin self-consistency iteration #    8

  Date     :  20190722, Time     :  144505.822
------------------------------------------------------------
  Evaluating new KS density.
  Integration grid: deviation in total charge (<rho> - N_e) =  -2.910317E-09
  Pulay mixing of updated and previous charge densities.

  Evaluating partitioned Hartree potential by multipole expansion.
  | Analytical far-field extrapolation by fixed multipoles:
  | Hartree multipole sum: apparent total charge =   0.999694E+00
  Summing up the Hartree potential.
  Time summed over all CPUs for potential: real work        0.096 s, elapsed        0.097 s
  | RMS charge density error from multipole expansion :   0.494682E-03

  Integrating Hamiltonian matrix: batch-based integration.
  Time summed over all CPUs for integration: real work        0.167 s, elapsed        0.172 s

  Updating Kohn-Sham eigenvalues, eigenvectors, occupation numbers, and Fermi level.
  Solving generalized eigenproblem
  Updating Kohn-Sham eigenvalues and eigenfunctions.
  Solving real generalised eigenvalue problem by standard LAPACK (fast)
  Determining occupation numbers for Kohn-Sham eigenstates.
  | Chemical potential (Fermi level) in eV                 : -.17445981E+02
  | Error in electron count due to remaining E_F inaccuracy: -.18829382E-12
  | Maximum occupation number of highest empty state:  0.00E+00

  Highest occupied state (VBM) at    -25.61404806 eV
  | Occupation number:      2.00000000

  Lowest unoccupied state (CBM) at   -17.44265491 eV
  | Occupation number:      0.63811223

  Overall HOMO-LUMO gap:      8.17139314 eV.

  Total energy components:
  | Sum of eigenvalues            :         -89.79942852 Ha       -2443.56677722 eV
  | XC energy correction          :         -16.45325359 Ha        -447.71580958 eV
  | XC potential correction       :          21.14505863 Ha         575.38632078 eV
  | Free-atom electrostatic energy:         -71.50995472 Ha       -1945.88487358 eV
  | Hartree energy correction     :           6.82448104 Ha         185.70357756 eV
  | Entropy correction            :          -0.00016122 Ha          -0.00438711 eV
  | ---------------------------
  | Total energy                  :        -149.79309715 Ha       -4076.07756204 eV
  | Total energy, T -> 0          :        -149.79325837 Ha       -4076.08194915 eV  <-- do not rely on this value for anything but (periodic) metals
  | Electronic free energy        :        -149.79341960 Ha       -4076.08633625 eV

  Derived energy quantities:
  | Kinetic energy                :         149.45503267 Ha        4066.87835945 eV
  | Electrostatic energy          :        -282.79487624 Ha       -7695.24011190 eV
  | Energy correction for multipole
  | error in Hartree potential    :          -0.00054403 Ha          -0.01480378 eV
  | Sum of eigenvalues per atom                           :       -1221.78338861 eV
  | Total energy (T->0) per atom                          :       -2038.04097457 eV  <-- do not rely on this value for anything but (periodic) metals
  | Electronic free energy per atom                       :       -2038.04316813 eV

  Self-consistency convergence accuracy:
  | Change of charge density      :  0.2608E-01
  | Change of sum of eigenvalues  :  0.3634E-01 eV
  | Change of total energy        : -0.3021E-03 eV

  End self-consistency iteration #     8       :  max(cpu_time)    wall_clock(cpu1)
  | Time for this iteration                    :        0.108 s           0.107 s
  | Charge density update                      :        0.030 s           0.030 s
  | Density mixing                             :        0.003 s           0.003 s
  | Hartree multipole update                   :        0.004 s           0.004 s
  | Hartree multipole summation                :        0.025 s           0.024 s
  | Integration                                :        0.043 s           0.044 s
  | Solution of K.-S. eqns.                    :        0.001 s           0.001 s
  | Total energy evaluation                    :        0.000 s           0.001 s
------------------------------------------------------------

------------------------------------------------------------
          Begin self-consistency iteration #    9

  Date     :  20190722, Time     :  144505.930
------------------------------------------------------------
  Evaluating new KS density.
  Integration grid: deviation in total charge (<rho> - N_e) =  -2.131628E-13
  Pulay mixing of updated and previous charge densities.

  Evaluating partitioned Hartree potential by multipole expansion.
  | Analytical far-field extrapolation by fixed multipoles:
  | Hartree multipole sum: apparent total charge =   0.999739E+00
  Summing up the Hartree potential.
  Time summed over all CPUs for potential: real work        0.096 s, elapsed        0.098 s
  | RMS charge density error from multipole expansion :   0.494769E-03

  Integrating Hamiltonian matrix: batch-based integration.
  Time summed over all CPUs for integration: real work        0.169 s, elapsed        0.172 s

  Updating Kohn-Sham eigenvalues, eigenvectors, occupation numbers, and Fermi level.
  Solving generalized eigenproblem
  Updating Kohn-Sham eigenvalues and eigenfunctions.
  Solving real generalised eigenvalue problem by standard LAPACK (fast)
  Determining occupation numbers for Kohn-Sham eigenstates.
  | Chemical potential (Fermi level) in eV                 : -.17445380E+02
  | Error in electron count due to remaining E_F inaccuracy: -.14566126E-12
  | Maximum occupation number of highest empty state:  0.00E+00

  Highest occupied state (VBM) at    -25.61363595 eV
  | Occupation number:      2.00000000

  Lowest unoccupied state (CBM) at   -17.44162749 eV
  | Occupation number:      0.59559503

  Overall HOMO-LUMO gap:      8.17200846 eV.

  Total energy components:
  | Sum of eigenvalues            :         -89.79906554 Ha       -2443.55690022 eV
  | XC energy correction          :         -16.45330542 Ha        -447.71721997 eV
  | XC potential correction       :          21.14512792 Ha         575.38820614 eV
  | Free-atom electrostatic energy:         -71.50995472 Ha       -1945.88487358 eV
  | Hartree energy correction     :           6.82410905 Ha         185.69345525 eV
  | Entropy correction            :          -0.00016328 Ha          -0.00444302 eV
  | ---------------------------
  | Total energy                  :        -149.79308871 Ha       -4076.07733238 eV
  | Total energy, T -> 0          :        -149.79325199 Ha       -4076.08177540 eV  <-- do not rely on this value for anything but (periodic) metals
  | Electronic free energy        :        -149.79341527 Ha       -4076.08621841 eV

  Derived energy quantities:
  | Kinetic energy                :         149.45517624 Ha        4066.88226620 eV
  | Electrostatic energy          :        -282.79495954 Ha       -7695.24237860 eV
  | Energy correction for multipole
  | error in Hartree potential    :          -0.00054393 Ha          -0.01480114 eV
  | Sum of eigenvalues per atom                           :       -1221.77845011 eV
  | Total energy (T->0) per atom                          :       -2038.04088770 eV  <-- do not rely on this value for anything but (periodic) metals
  | Electronic free energy per atom                       :       -2038.04310921 eV

  Self-consistency convergence accuracy:
  | Change of charge density      :  0.4754E-01
  | Change of sum of eigenvalues  :  0.9877E-02 eV
  | Change of total energy        :  0.2297E-03 eV

  End self-consistency iteration #     9       :  max(cpu_time)    wall_clock(cpu1)
  | Time for this iteration                    :        0.107 s           0.109 s
  | Charge density update                      :        0.030 s           0.031 s
  | Density mixing                             :        0.003 s           0.003 s
  | Hartree multipole update                   :        0.004 s           0.004 s
  | Hartree multipole summation                :        0.025 s           0.025 s
  | Integration                                :        0.043 s           0.043 s
  | Solution of K.-S. eqns.                    :        0.001 s           0.002 s
  | Total energy evaluation                    :        0.001 s           0.000 s
------------------------------------------------------------

------------------------------------------------------------
          Begin self-consistency iteration #   10

  Date     :  20190722, Time     :  144506.041
------------------------------------------------------------
  Evaluating new KS density.
  Integration grid: deviation in total charge (<rho> - N_e) =  -4.973799E-14
  Pulay mixing of updated and previous charge densities.

  Evaluating partitioned Hartree potential by multipole expansion.
  | Analytical far-field extrapolation by fixed multipoles:
  | Hartree multipole sum: apparent total charge =   0.100002E+01
  Summing up the Hartree potential.
  Time summed over all CPUs for potential: real work        0.097 s, elapsed        0.098 s
  | RMS charge density error from multipole expansion :   0.495258E-03

  Integrating Hamiltonian matrix: batch-based integration.
  Time summed over all CPUs for integration: real work        0.167 s, elapsed        0.171 s

  Updating Kohn-Sham eigenvalues, eigenvectors, occupation numbers, and Fermi level.
  Solving generalized eigenproblem
  Updating Kohn-Sham eigenvalues and eigenfunctions.
  Solving real generalised eigenvalue problem by standard LAPACK (fast)
  Determining occupation numbers for Kohn-Sham eigenstates.
  | Chemical potential (Fermi level) in eV                 : -.17443543E+02
  | Error in electron count due to remaining E_F inaccuracy: -.98724069E-08
  | Maximum occupation number of highest empty state:  0.00E+00

  Highest occupied state (VBM) at    -25.61214694 eV
  | Occupation number:      2.00000000

  Lowest unoccupied state (CBM) at   -17.44096779 eV
  | Occupation number:      0.71571044

  Overall HOMO-LUMO gap:      8.17117915 eV.

  Total energy components:
  | Sum of eigenvalues            :         -89.79762705 Ha       -2443.51775677 eV
  | XC energy correction          :         -16.45355873 Ha        -447.72411306 eV
  | XC potential correction       :          21.14546647 Ha         575.39741850 eV
  | Free-atom electrostatic energy:         -71.50995472 Ha       -1945.88487358 eV
  | Hartree energy correction     :           6.82255295 Ha         185.65111167 eV
  | Entropy correction            :          -0.00015545 Ha          -0.00423010 eV
  | ---------------------------
  | Total energy                  :        -149.79312108 Ha       -4076.07821323 eV
  | Total energy, T -> 0          :        -149.79327654 Ha       -4076.08244333 eV  <-- do not rely on this value for anything but (periodic) metals
  | Electronic free energy        :        -149.79343199 Ha       -4076.08667343 eV

  Derived energy quantities:
  | Kinetic energy                :         149.45597303 Ha        4066.90394795 eV
  | Electrostatic energy          :        -282.79553538 Ha       -7695.25804812 eV
  | Energy correction for multipole
  | error in Hartree potential    :          -0.00054353 Ha          -0.01479030 eV
  | Sum of eigenvalues per atom                           :       -1221.75887838 eV
  | Total energy (T->0) per atom                          :       -2038.04122166 eV  <-- do not rely on this value for anything but (periodic) metals
  | Electronic free energy per atom                       :       -2038.04333671 eV

  Self-consistency convergence accuracy:
  | Change of charge density      :  0.3289E-01
  | Change of sum of eigenvalues  :  0.3914E-01 eV
  | Change of total energy        : -0.8809E-03 eV

  End self-consistency iteration #    10       :  max(cpu_time)    wall_clock(cpu1)
  | Time for this iteration                    :        0.106 s           0.106 s
  | Charge density update                      :        0.030 s           0.029 s
  | Density mixing                             :        0.003 s           0.003 s
  | Hartree multipole update                   :        0.004 s           0.004 s
  | Hartree multipole summation                :        0.025 s           0.025 s
  | Integration                                :        0.043 s           0.043 s
  | Solution of K.-S. eqns.                    :        0.001 s           0.001 s
  | Total energy evaluation                    :        0.000 s           0.001 s
------------------------------------------------------------

------------------------------------------------------------
          Begin self-consistency iteration #   11

  Date     :  20190722, Time     :  144506.148
------------------------------------------------------------
  Evaluating new KS density.
  Integration grid: deviation in total charge (<rho> - N_e) =  -9.872256E-09
  Pulay mixing of updated and previous charge densities.

  Evaluating partitioned Hartree potential by multipole expansion.
  | Analytical far-field extrapolation by fixed multipoles:
  | Hartree multipole sum: apparent total charge =   0.999995E+00
  Summing up the Hartree potential.
  Time summed over all CPUs for potential: real work        0.099 s, elapsed        0.102 s
  | RMS charge density error from multipole expansion :   0.495307E-03

  Integrating Hamiltonian matrix: batch-based integration.
  Time summed over all CPUs for integration: real work        0.166 s, elapsed        0.170 s

  Updating Kohn-Sham eigenvalues, eigenvectors, occupation numbers, and Fermi level.
  Solving generalized eigenproblem
  Updating Kohn-Sham eigenvalues and eigenfunctions.
  Solving real generalised eigenvalue problem by standard LAPACK (fast)
  Determining occupation numbers for Kohn-Sham eigenstates.
  | Chemical potential (Fermi level) in eV                 : -.17441523E+02
  | Error in electron count due to remaining E_F inaccuracy: 0.69277917E-13
  | Maximum occupation number of highest empty state:  0.00E+00

  Highest occupied state (VBM) at    -25.61055449 eV
  | Occupation number:      2.00000000

  Lowest unoccupied state (CBM) at   -17.43706604 eV
  | Occupation number:      0.52853586

  Overall HOMO-LUMO gap:      8.17348845 eV.

  Total energy components:
  | Sum of eigenvalues            :         -89.79649715 Ha       -2443.48701080 eV
  | XC energy correction          :         -16.45367389 Ha        -447.72724652 eV
  | XC potential correction       :          21.14561834 Ha         575.40155113 eV
  | Free-atom electrostatic energy:         -71.50995472 Ha       -1945.88487358 eV
  | Hartree energy correction     :           6.82142574 Ha         185.62043860 eV
  | Entropy correction            :          -0.00016499 Ha          -0.00448951 eV
  | ---------------------------
  | Total energy                  :        -149.79308169 Ha       -4076.07714118 eV
  | Total energy, T -> 0          :        -149.79324667 Ha       -4076.08163069 eV  <-- do not rely on this value for anything but (periodic) metals
  | Electronic free energy        :        -149.79341166 Ha       -4076.08612019 eV

  Derived energy quantities:
  | Kinetic energy                :         149.45655186 Ha        4066.91969864 eV
  | Electrostatic energy          :        -282.79595966 Ha       -7695.26959329 eV
  | Energy correction for multipole
  | error in Hartree potential    :          -0.00054351 Ha          -0.01478959 eV
  | Sum of eigenvalues per atom                           :       -1221.74350540 eV
  | Total energy (T->0) per atom                          :       -2038.04081534 eV  <-- do not rely on this value for anything but (periodic) metals
  | Electronic free energy per atom                       :       -2038.04306010 eV

  Self-consistency convergence accuracy:
  | Change of charge density      :  0.7437E-01
  | Change of sum of eigenvalues  :  0.3075E-01 eV
  | Change of total energy        :  0.1072E-02 eV

  End self-consistency iteration #    11       :  max(cpu_time)    wall_clock(cpu1)
  | Time for this iteration                    :        0.108 s           0.108 s
  | Charge density update                      :        0.030 s           0.030 s
  | Density mixing                             :        0.003 s           0.003 s
  | Hartree multipole update                   :        0.004 s           0.004 s
  | Hartree multipole summation                :        0.026 s           0.026 s
  | Integration                                :        0.043 s           0.042 s
  | Solution of K.-S. eqns.                    :        0.001 s           0.002 s
  | Total energy evaluation                    :        0.000 s           0.000 s
------------------------------------------------------------

------------------------------------------------------------
          Begin self-consistency iteration #   12

  Date     :  20190722, Time     :  144506.257
------------------------------------------------------------
  Evaluating new KS density.
  Integration grid: deviation in total charge (<rho> - N_e) =   0.000000E+00
  Pulay mixing of updated and previous charge densities.

  Evaluating partitioned Hartree potential by multipole expansion.
  | Analytical far-field extrapolation by fixed multipoles:
  | Hartree multipole sum: apparent total charge =   0.100000E+01
  Summing up the Hartree potential.
  Time summed over all CPUs for potential: real work        0.096 s, elapsed        0.099 s
  | RMS charge density error from multipole expansion :   0.495325E-03

  Integrating Hamiltonian matrix: batch-based integration.
  Time summed over all CPUs for integration: real work        0.168 s, elapsed        0.174 s

  Updating Kohn-Sham eigenvalues, eigenvectors, occupation numbers, and Fermi level.
  Solving generalized eigenproblem
  Updating Kohn-Sham eigenvalues and eigenfunctions.
  Solving real generalised eigenvalue problem by standard LAPACK (fast)
  Determining occupation numbers for Kohn-Sham eigenstates.
  | Chemical potential (Fermi level) in eV                 : -.17441432E+02
  | Error in electron count due to remaining E_F inaccuracy: 0.10835777E-12
  | Maximum occupation number of highest empty state:  0.00E+00

  Highest occupied state (VBM) at    -25.61042191 eV
  | Occupation number:      2.00000000

  Lowest unoccupied state (CBM) at   -17.43699368 eV
  | Occupation number:      0.53025642

  Overall HOMO-LUMO gap:      8.17342823 eV.

  Total energy components:
  | Sum of eigenvalues            :         -89.79645069 Ha       -2443.48574645 eV
  | XC energy correction          :         -16.45368311 Ha        -447.72749759 eV
  | XC potential correction       :          21.14563083 Ha         575.40189093 eV
  | Free-atom electrostatic energy:         -71.50995472 Ha       -1945.88487358 eV
  | Hartree energy correction     :           6.82137593 Ha         185.61908324 eV
  | Entropy correction            :          -0.00016497 Ha          -0.00448894 eV
  | ---------------------------
  | Total energy                  :        -149.79308177 Ha       -4076.07714346 eV
  | Total energy, T -> 0          :        -149.79324673 Ha       -4076.08163240 eV  <-- do not rely on this value for anything but (periodic) metals
[...]
  | Total energy (T->0) per atom                          :       -2038.04080844 eV  <-- do not rely on this value for anything but (periodic) metals
  | Electronic free energy per atom                       :       -2038.04305546 eV

  Self-consistency convergence accuracy:
  | Change of charge density      :  0.5441E-04
  | Change of sum of eigenvalues  : -0.3887E-03 eV
  | Change of total energy        : -0.2618E-08 eV

  Electronic self-consistency reached - switching on the force computation.

  End self-consistency iteration #    15       :  max(cpu_time)    wall_clock(cpu1)
  | Time for this iteration                    :        0.109 s           0.109 s
  | Charge density & force component update    :        0.030 s           0.030 s
  | Density mixing                             :        0.003 s           0.003 s
  | Hartree multipole update                   :        0.004 s           0.003 s
  | Hartree multipole summation                :        0.026 s           0.026 s
  | Integration                                :        0.044 s           0.044 s
  | Solution of K.-S. eqns.                    :        0.002 s           0.002 s
  | Total energy evaluation                    :        0.001 s           0.000 s
------------------------------------------------------------

------------------------------------------------------------
          Begin self-consistency iteration #   16

  Date     :  20190722, Time     :  144506.704
------------------------------------------------------------
  Evaluating new KS density.
  Integration grid: deviation in total charge (<rho> - N_e) =   4.973799E-14
  Pulay mixing of updated and previous charge densities.

  Evaluating partitioned Hartree potential by multipole expansion.
  | Analytical far-field extrapolation by fixed multipoles:
  | Hartree multipole sum: apparent total charge =   0.999999E+00
  Summing up the Hartree potential.
  Time summed over all CPUs for potential: real work        0.259 s, elapsed        0.273 s
  | RMS charge density error from multipole expansion :   0.495332E-03

  Integrating Hamiltonian matrix: batch-based integration.
  Time summed over all CPUs for integration: real work        0.170 s, elapsed        0.179 s

  Updating Kohn-Sham eigenvalues, eigenvectors, occupation numbers, and Fermi level.
  Solving generalized eigenproblem
  Updating Kohn-Sham eigenvalues and eigenfunctions.
  Solving real generalised eigenvalue problem by standard LAPACK (fast)
  Determining occupation numbers for Kohn-Sham eigenstates.
  | Chemical potential (Fermi level) in eV                 : -.17441308E+02
  | Error in electron count due to remaining E_F inaccuracy: 0.26112446E-12
  | Maximum occupation number of highest empty state:  0.00E+00

  Highest occupied state (VBM) at    -25.61029623 eV
  | Occupation number:      2.00000000

  Lowest unoccupied state (CBM) at   -17.43653924 eV
  | Occupation number:      0.50007290

  Overall HOMO-LUMO gap:      8.17375699 eV.

  Total energy components:
  | Sum of eigenvalues            :         -89.79637994 Ha       -2443.48382122 eV
  | XC energy correction          :         -16.45369163 Ha        -447.72772934 eV
  | XC potential correction       :          21.14564215 Ha         575.40219893 eV
  | Free-atom electrostatic energy:         -71.50995472 Ha       -1945.88487358 eV
  | Hartree energy correction     :           6.82130313 Ha         185.61710237 eV
  | Entropy correction            :          -0.00016515 Ha          -0.00449404 eV
  | ---------------------------
  | Total energy                  :        -149.79308101 Ha       -4076.07712284 eV
  | Total energy, T -> 0          :        -149.79324616 Ha       -4076.08161688 eV  <-- do not rely on this value for anything but (periodic) metals
  | Electronic free energy        :        -149.79341132 Ha       -4076.08611092 eV

  Derived energy quantities:
  | Kinetic energy                :         149.45658029 Ha        4066.92047221 eV
  | Electrostatic energy          :        -282.79596967 Ha       -7695.26986571 eV
  | Energy correction for multipole
  | error in Hartree potential    :          -0.00054343 Ha          -0.01478739 eV
  | Sum of eigenvalues per atom                           :       -1221.74191061 eV
  | Total energy (T->0) per atom                          :       -2038.04080844 eV  <-- do not rely on this value for anything but (periodic) metals
  | Electronic free energy per atom                       :       -2038.04305546 eV

  atomic forces [eV/Ang]:
  -----------------------
  atom #    1
   Hellmann-Feynman              : -0.347305E-01  0.362496E-09 -0.155921E+02
   Ionic forces                  :  0.000000E+00  0.000000E+00  0.000000E+00
   Multipole                     : -0.133110E-03  0.363469E-11 -0.593845E-01
   Pulay + GGA                   :  0.000000E+00  0.000000E+00  0.000000E+00
   ----------------------------------------------------------------
   Total forces(   1)            : -0.348637E-01  0.366130E-09 -0.156515E+02
  atom #    2
   Hellmann-Feynman              :  0.347305E-01 -0.366178E-09  0.155921E+02
   Ionic forces                  :  0.000000E+00  0.000000E+00  0.000000E+00
   Multipole                     :  0.133110E-03 -0.367832E-11  0.593845E-01
   Pulay + GGA                   :  0.000000E+00  0.000000E+00  0.000000E+00
   ----------------------------------------------------------------
   Total forces(   2)            :  0.348637E-01 -0.369857E-09  0.156515E+02


  Self-consistency convergence accuracy:
  | Change of charge density      :  0.1351E-03
  | Change of sum of eigenvalues  :  0.1058E-03 eV
  | Change of total energy        :  0.3190E-08 eV
  | Change of forces              :  0.1565E+02 eV/A

  End self-consistency iteration #    16       :  max(cpu_time)    wall_clock(cpu1)
  | Time for this iteration                    :        0.154 s           0.154 s
  | Charge density & force component update    :        0.030 s           0.030 s
  | Density mixing                             :        0.003 s           0.003 s
  | Hartree multipole update                   :        0.005 s           0.004 s
  | Hartree multipole summation                :        0.069 s           0.069 s
  | Integration                                :        0.045 s           0.045 s
  | Solution of K.-S. eqns.                    :        0.001 s           0.001 s
  | Total energy evaluation                    :        0.001 s           0.002 s
------------------------------------------------------------

------------------------------------------------------------
          Begin self-consistency iteration #   17

  Date     :  20190722, Time     :  144506.859
------------------------------------------------------------
  Evaluating new KS density and force components.
  Integration grid: deviation in total charge (<rho> - N_e) =   2.362555E-13
  Pulay mixing of updated and previous charge densities.

  Evaluating partitioned Hartree potential by multipole expansion.
  | Analytical far-field extrapolation by fixed multipoles:
  | Hartree multipole sum: apparent total charge =   0.999999E+00
  Summing up the Hartree potential.
  Time summed over all CPUs for potential: real work        0.258 s, elapsed        0.265 s
  | RMS charge density error from multipole expansion :   0.495332E-03

  Integrating Hamiltonian matrix: batch-based integration.
  Time summed over all CPUs for integration: real work        0.167 s, elapsed        0.168 s

  Updating Kohn-Sham eigenvalues, eigenvectors, occupation numbers, and Fermi level.
  Solving generalized eigenproblem
  Updating Kohn-Sham eigenvalues and eigenfunctions.
  Solving real generalised eigenvalue problem by standard LAPACK (fast)
  Determining occupation numbers for Kohn-Sham eigenstates.
  | Chemical potential (Fermi level) in eV                 : -.17441307E+02
  | Error in electron count due to remaining E_F inaccuracy: -.11901591E-12
  | Maximum occupation number of highest empty state:  0.00E+00

  Highest occupied state (VBM) at    -25.61029545 eV
  | Occupation number:      2.00000000

  Lowest unoccupied state (CBM) at   -17.43653770 eV
  | Occupation number:      0.50000289

  Overall HOMO-LUMO gap:      8.17375775 eV.

  Total energy components:
  | Sum of eigenvalues            :         -89.79637952 Ha       -2443.48380988 eV
  | XC energy correction          :         -16.45369163 Ha        -447.72772949 eV
  | XC potential correction       :          21.14564215 Ha         575.40219911 eV
  | Free-atom electrostatic energy:         -71.50995472 Ha       -1945.88487358 eV
  | Hartree energy correction     :           6.82130272 Ha         185.61709100 eV
  | Entropy correction            :          -0.00016515 Ha          -0.00449404 eV
  | ---------------------------
  | Total energy                  :        -149.79308101 Ha       -4076.07712284 eV
  | Total energy, T -> 0          :        -149.79324616 Ha       -4076.08161688 eV  <-- do not rely on this value for anything but (periodic) metals
  | Electronic free energy        :        -149.79341132 Ha       -4076.08611092 eV

  Derived energy quantities:
  | Kinetic energy                :         149.45658023 Ha        4066.92047060 eV
  | Electrostatic energy          :        -282.79596960 Ha       -7695.26986395 eV
  | Energy correction for multipole
  | error in Hartree potential    :          -0.00054343 Ha          -0.01478739 eV
  | Sum of eigenvalues per atom                           :       -1221.74190494 eV
  | Total energy (T->0) per atom                          :       -2038.04080844 eV  <-- do not rely on this value for anything but (periodic) metals
  | Electronic free energy per atom                       :       -2038.04305546 eV

  atomic forces [eV/Ang]:
  -----------------------
  atom #    1
   Hellmann-Feynman              : -0.347306E-01  0.243667E-09 -0.155921E+02
   Ionic forces                  :  0.000000E+00  0.000000E+00  0.000000E+00
   Multipole                     : -0.133110E-03  0.147243E-11 -0.593844E-01
   Pulay + GGA                   :  0.348634E-01  0.231043E-10  0.156517E+02
   ----------------------------------------------------------------
   Total forces(   1)            : -0.254342E-06  0.268244E-09  0.248990E-03
  atom #    2
   Hellmann-Feynman              :  0.347306E-01 -0.241939E-09  0.155921E+02
   Ionic forces                  :  0.000000E+00  0.000000E+00  0.000000E+00
   Multipole                     :  0.133110E-03 -0.168193E-11  0.593844E-01
   Pulay + GGA                   : -0.348634E-01 -0.227004E-10 -0.156517E+02
   ----------------------------------------------------------------
   Total forces(   2)            :  0.254342E-06 -0.266321E-09 -0.248990E-03


  Self-consistency convergence accuracy:
  | Change of charge density      :  0.2510E-04
  | Change of sum of eigenvalues  :  0.1135E-04 eV
  | Change of total energy        :  0.1206E-09 eV
  | Change of forces              :  0.1883E-05 eV/A

  Writing Kohn-Sham eigenvalues.

  State    Occupation    Eigenvalue [Ha]    Eigenvalue [eV]
      1       2.00000         -19.412611         -528.24402
      2       2.00000         -19.412392         -528.23807
      3       2.00000          -1.743891          -47.45369
      4       2.00000          -1.151970          -31.34670
      5       2.00000          -0.957887          -26.06543
      6       2.00000          -0.957887          -26.06543
      7       2.00000          -0.941161          -25.61030
      8       0.50000          -0.640781          -17.43654
      9       0.50000          -0.640781          -17.43654
     10       0.00000          -0.181164           -4.92973
     11       0.00000          -0.160859           -4.37719
     12       0.00000          -0.115282           -3.13697
     13       0.00000          -0.115282           -3.13697
     14       0.00000          -0.061531           -1.67435

  Highest occupied state (VBM) at    -25.61029545 eV
  | Occupation number:      2.00000000

  Lowest unoccupied state (CBM) at   -17.43653770 eV
  | Occupation number:      0.50000289

  Overall HOMO-LUMO gap:      8.17375775 eV.

  Self-consistency cycle converged.

  End self-consistency iteration #    17       :  max(cpu_time)    wall_clock(cpu1)
  | Time for this iteration                    :        0.226 s           0.227 s
  | Charge density & force component update    :        0.107 s           0.107 s
  | Density mixing                             :        0.003 s           0.003 s
  | Hartree multipole update                   :        0.004 s           0.004 s
  | Hartree multipole summation                :        0.067 s           0.067 s
  | Integration                                :        0.042 s           0.042 s
  | Solution of K.-S. eqns.                    :        0.001 s           0.001 s
  | Total energy evaluation                    :        0.001 s           0.002 s
------------------------------------------------------------
  Writing cluster restart information to file restart
  ------------------------------------------------------------
   Computing monopole / dipole moments for complete molecule:
  | Total electronic charge [e]         :          0.150000000493810E+02
  | Total ionic charge [e]              :          0.160000000000000E+02
  | Total charge [e]                    :          0.999999950619019E+00
 * Warning: The system has a total charge of      0.99999995 .
 * The dipole moment depends on the choice of the origin.
  | Total dipole moment [eAng]          :         -0.124999993827296E-02        -0.158626275115203E-14         0.603749970186216E+00
  | Absolute dipole moment              :          0.603751264180625E+00 eAng              /                   0.289948895861693E+01 Debye  .
  Removing unitary transformations (pure translations, rotations) from forces on atoms.
  Atomic forces before filtering:
  | Net force on center of mass :  -0.262058E-12  0.192258E-11  0.980877E-11 eV/A
  | Net torque on center of mass:   0.300100E-09  0.908045E-06 -0.668206E-12 eV
  Atomic forces after filtering:
  | Net force on center of mass :   0.000000E+00  0.324519E-27  0.000000E+00 eV/A
  | Net torque on center of mass:   0.000000E+00 -0.180070E-21  0.000000E+00 eV

  Energy and forces in a compact form:
  | Total energy uncorrected      :         -0.407607712284122E+04 eV
  | Total energy corrected        :         -0.407608161688051E+04 eV  <-- do not rely on this value for anything but (periodic) metals
  | Electronic free energy        :         -0.407608611091980E+04 eV
  Total atomic forces (unitary forces cleaned) [eV/Ang]:
  |   1          0.554400100762507E-06          0.162259424656531E-27          0.248988088434514E-03
  |   2         -0.554400100762507E-06          0.162259424656531E-27         -0.248988088434514E-03

  ------------------------------------ 
  Start decomposition of the XC Energy 
  ------------------------------------ 
  Hartree-Fock part   :          0.000000000 Ha              0.000000000 eV
  ------------------------------------ 
  X Energy            :        -15.950250868 Ha           -434.028409232 eV
  C Energy GGA        :         -0.503440766 Ha            -13.699320256 eV
  Total XC Energy     :        -16.453691634 Ha           -447.727729488 eV
  LDA X and C from self-consistent density 
  X Energy LDA        :        -14.465847518 Ha           -393.635738938 eV
  C Energy LDA        :         -1.061660392 Ha            -28.889249136 eV
  ------------------------------------ 
  End decomposition of the XC Energy 
  ------------------------------------ 

------------------------------------------------------------------------------
  Final output of selected total energy values:

  The following output summarizes some interesting total energy values
  at the end of a run (AFTER all relaxation, molecular dynamics, etc.).

  | Total energy of the DFT / Hartree-Fock s.c.f. calculation      :          -4076.077122841 eV
  | Final zero-broadening corrected energy (caution - metals only) :          -4076.081616881 eV
  | For reference only, the value of 1 Hartree used in FHI-aims is :             27.211384500 eV

  Before relying on these values, please be sure to understand exactly which
  total energy value is referred to by a given number. Different objects may
  all carry the same name 'total energy'. Definitions:

  Total energy of the DFT / Hartree-Fock s.c.f. calculation:
  | Note that this energy does not include ANY quantities calculated after the
  | s.c.f. cycle, in particular not ANY RPA, MP2, etc. many-body perturbation terms.

  Final zero-broadening corrected energy:
  | For metallic systems only, a broadening of the occupation numbers at the Fermi
  | level can be extrapolated back to zero broadening by an electron-gas inspired
  | formula. For all systems that are not real metals, this value can be
  | meaningless and should be avoided.

------------------------------------------------------------------------------
  Methods described in the following list of references were used in this FHI-aims run.
  If you publish the results, please make sure to cite these reference if they apply.
  FHI-aims is an academic code, and for our developers (often, Ph.D. students
  and postdocs), scientific credit in the community is essential.
  Thank you for helping us!

  For any use of FHI-aims, please cite:

    Volker Blum, Ralf Gehrke, Felix Hanke, Paula Havu, Ville Havu,
    Xinguo Ren, Karsten Reuter, and Matthias Scheffler
    'Ab initio molecular simulations with numeric atom-centered orbitals'
    Computer Physics Communications 180, 2175-2196 (2009)
    http://dx.doi.org/10.1016/j.cpc.2009.06.022


  For the real-space grid partitioning and parallelization used in this calculation, please cite:

    Ville Havu, Volker Blum, Paula Havu, and Matthias Scheffler,
    'Efficient O(N) integration for all-electron electronic structure calculation'
    'using numerically tabulated basis functions'
    Journal of Computational Physics 228, 8367-8379 (2009).
    http://dx.doi.org/10.1016/j.jcp.2009.08.008

  Of course, there are many other important community references, e.g., those cited in the
  above references. Our list is limited to references that describe implementations in the
  FHI-aims code. The reason is purely practical (length of this list) - please credit others as well.

------------------------------------------------------------
          Leaving FHI-aims.
          Date     :  20190722, Time     :  144507.141

          Computational steps:
          | Number of self-consistency cycles          :           17

          Detailed time accounting                     :  max(cpu_time)    wall_clock(cpu1)
          | Total time                                 :        2.585 s           2.612 s
          | Preparation time                           :        0.147 s           0.167 s
          | Grid partitioning                          :        0.025 s           0.025 s
          | Preloading free-atom quantities on grid    :        0.018 s           0.019 s
          | Free-atom superposition energy             :        0.011 s           0.011 s
          | Total time for integrations                :        0.875 s           0.876 s
          | Total time for solution of K.-S. equations :        0.035 s           0.040 s
          | Total time for density & force components  :        0.656 s           0.642 s
          | Total time for mixing                      :        0.048 s           0.047 s
          | Total time for Hartree multipole update    :        0.082 s           0.076 s
          | Total time for Hartree multipole sum       :        0.562 s           0.560 s
          | Total time for total energy evaluation     :        0.006 s           0.018 s

          Have a nice day.
------------------------------------------------------------
