  MPI-parallelism will be employed.
------------------------------------------------------------
          Invoking FHI-aims ...
          Version 160328_3
          Compiled on 2019/06/10 at 14:55:49 on host taito-login3.csc.fi.

          When using FHI-aims, please cite the following reference:

          Volker Blum, Ralf Gehrke, Felix Hanke, Paula Havu,
          Ville Havu, Xinguo Ren, Karsten Reuter, and Matthias Scheffler,
          'Ab Initio Molecular Simulations with Numeric Atom-Centered Orbitals',
          Computer Physics Communications 180, 2175-2196 (2009)

          For any questions about FHI-aims, please visit the aimsclub website
          with its forums and wiki. Contributions to both the forums and the
          wiki are warmly encouraged - they are for you, and everyone is welcome there.

------------------------------------------------------------

  Date     :  20190722, Time     :  144410.174
  Time zero on CPU 1             :   0.619900000000000E-01  s.
  Internal wall clock time zero  :           333038650.174  s.

  Using        4 parallel tasks.
  Task        0 on host c798 reporting.
  Task        1 on host c798 reporting.
  Task        2 on host c798 reporting.
  Task        3 on host c798 reporting.

  Performing system and environment tests:
  | Environment variable OMP_NUM_THREADS correctly set to 1.
  | Maximum stacksize for task 0: unlimited
  | Maximum stacksize for task 1: unlimited
  | Maximum stacksize for task 2: unlimited
  | Maximum stacksize for task 3: unlimited
  | Current stacksize for task 0: 1024 [Mb]
  | Current stacksize for task 1: 1024 [Mb]
  | Current stacksize for task 2: 1024 [Mb]
  | Current stacksize for task 3: 1024 [Mb]
  | Checking for scalapack...
  | No scalapack compiled in.

  Obtaining array dimensions for all initial allocations:
  
  -----------------------------------------------------------------------
  Parsing control.in (first pass over file, find array dimensions only).
  The contents of control.in will be repeated verbatim below
  unless switched off by setting 'verbatim_writeout .false.' .
  in the first line of control.in .
  -----------------------------------------------------------------------
  
    #  Physical model settings
    #
  
    xc                            pbe
    charge                        1.0
    relativistic                  none
  #  default_initial_moment        0.0
    spin                          none
  #  vdw_correction_hirshfeld
  
    #  SCF convergence settings
    #
  
    sc_accuracy_rho               1E-4
    sc_accuracy_eev               1E-2
    sc_accuracy_etot              1E-8
    sc_iter_limit                 100
  
    #  Occupation settings
    #
  
    restart                       restart
    force_occupation_projector      9 1 0.5 8 9 # ion 0
    force_occupation_projector      8 1 0.5 8 9 # ion 0
  
    #  Relaxation
    #
  
    ##relax_geometry                bfgs    1.e-4
  
  
  ################################################################################
  #
  #  FHI-aims code project
  #  VB, Fritz-Haber Institut, 2007
  #
  #  Suggested "safe" defaults for O atom (to be pasted into control.in file)
  #
  ################################################################################
    species        O
  #     global species definitions
      nucleus             8
      mass                15.9994
  #
      l_hartree           8
  #
      cut_pot             4.0  2.0  1.0
      basis_dep_cutoff    0.d0
  #
      radial_base         36 7.0
      radial_multiplier   2
       angular_grids specified
        division   0.4087  110
        division   0.5181  194
        division   0.6184  302
        division   0.7315  434
        division   0.7934  590
  #      division   0.9656  770
  #      division   1.4041  974
  #      outer_grid 974
        outer_grid 590
  ################################################################################
  #
  #  Definition of "minimal" basis
  #
  ################################################################################
  #     valence basis states
      valence      2  s   2.
      valence      2  p   4.
  #     ion occupancy
      ion_occ      2  s   1.
      ion_occ      2  p   3.
  ################################################################################
  #
  #  Suggested additional basis functions. For production calculations,
  #  uncomment them one after another (the most important basis functions are
  #  listed first).
  #
  #  Constructed for dimers: 1.0 A, 1.208 A, 1.5 A, 2.0 A, 3.0 A
  #
  ################################################################################
  #  "First tier" - improvements: -699.05 meV to -159.38 meV
       hydro 2 p 1.8
       hydro 3 d 7.6
       hydro 3 s 6.4
  #  "Second tier" - improvements: -49.91 meV to -5.39 meV
       hydro 4 f 11.6
       hydro 3 p 6.2
       hydro 3 d 5.6
       hydro 5 g 17.6
       hydro 1 s 0.75
  #  "Third tier" - improvements: -2.83 meV to -0.50 meV
  #     ionic 2 p auto
  #     hydro 4 f 10.8
  #     hydro 4 d 4.7
  #     hydro 2 s 6.8
  #  "Fourth tier" - improvements: -0.40 meV to -0.12 meV
  #     hydro 3 p 5
  #     hydro 3 s 3.3
  #     hydro 5 g 15.6
  #     hydro 4 f 17.6
  #     hydro 4 d 14
  # Further basis functions - -0.08 meV and below
  #     hydro 3 s 2.1
  #     hydro 4 d 11.6
  #     hydro 3 p 16
  #     hydro 2 s 17.2
  compute_forces .true.
  final_forces_cleaned .true.
  output dipole
  
  -----------------------------------------------------------------------
  Completed first pass over input file control.in .
  -----------------------------------------------------------------------
  
  
  -----------------------------------------------------------------------
  Parsing geometry.in (first pass over file, find array dimensions only).
  The contents of geometry.in will be repeated verbatim below
  unless switched off by setting 'verbatim_writeout .false.' .
  in the first line of geometry.in .
  -----------------------------------------------------------------------
  
  #
  # temporary structure-file for finite-difference calculation of forces
  # displacement   0.0025 of \# atom     0 direction     0
  #
  atom    0.00250000    0.00000000    0.04235893   O
  atom   -0.00000000    0.00000000    1.16514107   O
  
  -----------------------------------------------------------------------
  Completed first pass over input file geometry.in .
  -----------------------------------------------------------------------
  

  Basic array size parameters:
  | Number of species                 :        1
  | Number of atoms                   :        2
  | Max. basis fn. angular momentum   :        4
  | Max. atomic/ionic basis occupied n:        2
  | Max. number of basis fn. types    :        2
  | Max. radial fns per species/type  :        8
  | Max. logarithmic grid size        :     1301
  | Max. radial integration grid size :       73
  | Max. angular integration grid size:      590
  | Max. angular grid division number :        8
  | Radial grid for Hartree potential :     1301
  | Number of spin channels           :        1

------------------------------------------------------------
          Reading file control.in.
------------------------------------------------------------
  XC: Using PBE gradient-corrected functionals.
  Charged system requested: Charge =   0.100000E+01.
  Non-relativistic treatment of kinetic energy.
  Spin treatment: No spin polarisation.
  Convergence accuracy of self-consistent charge density:  0.1000E-03
  Convergence accuracy of sum of eigenvalues:  0.1000E-01
  Convergence accuracy of total energy:  0.1000E-07
  Maximum number of s.-c. iterations  :   100
  Restart file specified as : restart
  | Reading information from existing file.
  Occupation forced using projector   1        9   0.50000000
  Occupation forced using projector   1        8   0.50000000
 
  Reading configuration options for species O                   .
  | Found nuclear charge :   8.0000
  | Found atomic mass :    15.9994000000000      amu
  | Found l_max for Hartree potential  :   8
  | Found cutoff potl. onset [A], width [A], scale factor :    4.00000    2.00000    1.00000
  | Threshold for basis-dependent cutoff potential is   0.000000E+00
  | Found data for basic radial integration grid :    36 points, outermost radius =    7.000 A
  | Found multiplier for basic radial grid :   2
  | Found angular grid specification: user-specified.
  | Specified grid contains     6 separate shells.
  | Check grid settings after all constraints further below.
  | Found free-atom valence shell :  2 s   2.000
  | Found free-atom valence shell :  2 p   4.000
  | No ionic wave fns used. Skipping ion_occ.
  | No ionic wave fns used. Skipping ion_occ.
  | Found hydrogenic basis function :  2 p   1.800
  | Found hydrogenic basis function :  3 d   7.600
  | Found hydrogenic basis function :  3 s   6.400
  | Found hydrogenic basis function :  4 f  11.600
  | Found hydrogenic basis function :  3 p   6.200
  | Found hydrogenic basis function :  3 d   5.600
  | Found hydrogenic basis function :  5 g  17.600
  | Found hydrogenic basis function :  1 s   0.750
  Species O                   : Missing cutoff potential type.
  Defaulting to exp(1/x)/(1-x)^2 type cutoff potential.
  Species O : No 'logarithmic' tag. Using default grid for free atom:
  | Default logarithmic grid data [bohr] : 0.1000E-03 0.1000E+03 0.1012E+01
  Species O : On-site basis accuracy parameter (for Gram-Schmidt orthonormalisation) not specified.
  Using default value basis_acc =  0.1000000E-03.
  Species O                   : Using default innermost maximum threshold i_radial=  2 for radial functions.
  Species O                   : Default cutoff onset for free atom density etc. : 0.40000000E+01 AA.
  Species O                   : Basic radial grid will be enhanced according to radial_multiplier =   2, to contain    73 grid points.
  Forces will be computed.
  Cleaning forces before final output.
  Dipole moment will be written out.
 
  Finished reading input file 'control.in'. Consistency checks are next.
 
  Target number of points in a grid batch is not set. Defaulting to  100
  Method for grid partitioning is not set. Defaulting to parallel hash+maxmin partitioning.
  Batch size limit is not set. Defaulting to    200
  By default, will store active basis functions for each batch.
  If in need of memory, prune_basis_once .false. can be used to disable this option.
  communication_type for Hartree potential was not specified.
  Defaulting to calc_hartree .
  Defaulting to Pulay charge density mixer.
  Pulay mixer: Number of relevant iterations not set.
  Defaulting to    8 iterations.
  Pulay mixer: Number of initial linear mixing iterations not set.
  Defaulting to    0 iterations.
  Work space size for distributed Hartree potential not set.
  Defaulting to   0.200000E+03 MB.
  Mixing parameter for charge density mixing has not been set.
  Using default: charge_mix_param =     0.2000.
  Algorithm-dependent basis array size parameters:
  | n_max_pulay                         :        8
  Geometry relaxation not requested: no relaxation will be performed.
  Force calculation: scf convergence accuracy of forces not set.
  Defaulting to  0.1000E-03 eV/A.
  Handling of forces: Unphysical translation and rotation will be removed from forces.
  No accuracy limit for integral partition fn. given. Defaulting to  0.1000E-14.
  No threshold value for u(r) in integrations given. Defaulting to  0.1000E-05.
  No occupation type (smearing scheme) given. Defaulting to Gaussian broadening, width =  0.1000E-01 eV.
  No accuracy for occupation numbers given. Defaulting to  0.1000E-07.
  No threshold value for occupation numbers given. Defaulting to  0.0000E+00.
  No accuracy for fermi level given. Defaulting to  0.1000E-19.
  Maximum # of iterations to find E_F not set. Defaulting to  200.
  Preferred method for the eigenvalue solver ('KS_method') not specified in 'control.in'.
  Calling blacs routine to test compilation state
  The best choice would be 'elpa', but your version of FHI-aims is compiled without scalapack support.
  Defaulting to 'lapack_fast' instead (serial solution, time will not improve with more CPUs).
  Will not use alltoall communication since running on < 1024 CPUs.
  Threshold for basis singularities not set.
  Default threshold for basis singularities:  0.1000E-04
  partition_type (choice of integration weights) for integrals was not specified.
  | Using a version of the partition function of Stratmann and coworkers ('stratmann_smoother').
  | At each grid point, the set of atoms used to build the partition table is smoothly restricted to
  | only those atoms whose free-atom density would be non-zero at that grid point.
  Partitioning for Hartree potential was not defined. Using partition_type for integrals.
  | Adjusted default value of keyword multip_moments_threshold to:       0.10000000E-11
  | This value may affect high angular momentum components of the Hartree potential in periodic systems.
  No q(lm)/r^(l+1) cutoff set for long-range Hartree potential.
  | Using default value of  0.100000E-09 .
  | Verify using the multipole_threshold keyword.
  Defaulting to new monopole extrapolation.
  Density update method: automatic selection selected.
------------------------------------------------------------


------------------------------------------------------------
          Reading geometry description geometry.in.
------------------------------------------------------------
 * Warning: Initial charge and total charge of the system are inconsistent.
 * Selected charge in control.in:     1.0000* Sum of initial charges in geometry.in:     0.0000
  Input structure read successfully.
  The structure contains        2 atoms,  and a total of         15.000 electrons.

  Input geometry:
  | No unit cell requested.
  | Atomic structure:
  |       Atom                x [A]            y [A]            z [A]
  |    1: Species O              0.002500         0.000000         0.042359
  |    2: Species O              0.000000         0.000000         1.165141
  |

  | The smallest distance between any two atoms is         1.12278492 AA.
  |
  | The first atom of this pair is atom number                      1 .
  | The second atom of this pair is atom number                     2 .

  Number of empty states per atom not set in control.in - providing a guess from actual geometry.
  | Total number of empty states used during s.c.f. cycle:        6
  If you use a very high smearing, use empty_states (per atom!) in control.in to increase this value.

  Structure-dependent array size parameters: 
  | Maximum number of distinct radial functions  :       11
  | Maximum number of basis functions            :       78
  | Number of Kohn-Sham states (occupied + empty):       14
------------------------------------------------------------

------------------------------------------------------------
          Preparing all fixed parts of the calculation.
------------------------------------------------------------
  Determining machine precision:
    2.225073858507201E-308
  Setting up grids for atomic and cluster calculations.

  Creating wave function, potential, and density for free atoms.

  Species: O

  List of occupied orbitals and eigenvalues:
    n    l              occ      energy [Ha]    energy [eV]
    1    0           2.0000       -18.898576      -514.2564
    2    0           2.0000        -0.878795       -23.9132
    2    1           4.0000        -0.332075        -9.0362

  Creating fixed part of basis set: Ionic, confined, hydrogenic.
 
  O                    hydrogenic:
 
  List of hydrogenic basis orbitals: 
    n    l      effective z      eigenvalue [eV]  inner max. [A]     outer max. [A]     outer radius [A]   
    2    1         1.800000       -11.0118           1.178562           1.178562           5.432602
    3    2         7.600000       -87.3183           0.624125           0.624125           4.634338
    3    0         6.400000       -61.9210           0.061167           1.081902           5.110480
    4    3        11.600000      -114.4239           0.731631           0.731631           4.522403
    3    1         6.200000       -58.1114           0.255680           1.030270           5.110480
    3    2         5.600000       -47.4083           0.847233           0.847233           5.173339
    5    4        17.600000      -168.5800           0.749740           0.749740           4.051222
    1    0         0.750000        -7.6499           0.705284           0.705284           5.366593
 

  Adding cutoff potential to free-atom effective potential.
  Creating atomic-like basis functions for current effective potential.

  Species O                   :

  List of atomic basis orbitals and eigenvalues:
    n    l      energy [Ha]    energy [eV]    outer radius [A]
    1    0       -18.898576      -514.2564       1.415765
    2    0        -0.878795       -23.9132       5.048385
    2    1        -0.332075        -9.0362       5.301386

  Assembling full basis from fixed parts.
  | Species O :   atomic orbital   1 s accepted.
  | Species O :   atomic orbital   2 s accepted.
  | Species O :    hydro orbital   3 s accepted.
  | Species O :    hydro orbital   1 s accepted.
  | Species O :   atomic orbital   2 p accepted.
  | Species O :    hydro orbital   2 p accepted.
  | Species O :    hydro orbital   3 p accepted.
  | Species O :    hydro orbital   3 d accepted.
  | Species O :    hydro orbital   3 d accepted.
  | Species O :    hydro orbital   4 f accepted.
  | Species O :    hydro orbital   5 g accepted.
 
  Basis size parameters after reduction:
  | Total number of radial functions:       11
  | Total number of basis functions :       78
 
  Testing on-site integration grid accuracy.
  |  Species  Function  <phi|h_atom|phi> (log., in eV)  <phi|h_atom|phi> (rad., in eV)
           1        1               -514.2564144315               -514.2564099626
           1        2                -23.9132357102                -23.9132356433
           1        3                 17.5398579759                 17.5398338425
           1        4                 14.5207278950                 14.5207740449
           1        5                 -9.0362392718                 -9.0362394845
           1        6                  7.9056275927                  7.9056237490
           1        7                 33.4201658992                 33.4201612015
           1        8                 45.8231952720                 45.8231953152
           1        9                 52.1937595491                 52.1937593440
           1       10                 85.4062894308                 85.4062894578
           1       11                142.0975701139                142.0975701391

  Preparing densities etc. for the partition functions (integrals / Hartree potential).

  Preparations completed.
  max(cpu_time)          :      0.142 s.
  Wall clock time (cpu1) :      0.153 s.
------------------------------------------------------------

------------------------------------------------------------
          Begin self-consistency loop: Initialization.

          Date     :  20190722, Time     :  144410.342
------------------------------------------------------------

  Initializing index lists of integration centers etc. from given atomic structure:
  | Number of centers in hartree potential         :         2
  | Number of centers in hartree multipole         :         2
  | Number of centers in electron density summation:         2
  | Number of centers in basis integrals           :         2
  | Number of centers in integrals                 :         2
  | Number of centers in hamiltonian               :         2
  Partitioning the integration grid into batches with parallel hashing+maxmin method.
  | Number of batches:      804
  | Maximal batch size:     116
  | Minimal batch size:      49
  | Average batch size:      66.244
  | Standard deviation of batch sizes:      20.074

  Integration load balanced across     4 MPI tasks.
  Work distribution over tasks is as follows:
  Task     0 has      13339 integration points.
  Task     1 has      13372 integration points.
  Task     2 has      13263 integration points.
  Task     3 has      13286 integration points.
  Initializing partition tables, free-atom densities, potentials, etc. across the integration grid (initialize_grid_storage).
  | initialize_grid_storage: Actual outermost partition radius vs. multipole_radius_free
  | (-- VB: in principle, multipole_radius_free should be larger, hence this output)
  | Species        1: Confinement radius =              6.000000000000000 AA, multipole_radius_free =              6.064445521808699 AA.
  | Species        1: outer_partition_radius set to              6.064445521808699 AA .
  | Original list of interatomic distances with           2 x          2 entries is created.
  | Net number of integration points:    53260
  | of which are non-zero points    :    49990
  Obtaining max. number of non-zero basis functions in each batch (get_n_compute_maxes).
  | Maximal number of non-zero basis functions:       78 in task     0
  | Maximal number of non-zero basis functions:       78 in task     1
  | Maximal number of non-zero basis functions:       78 in task     2
  | Maximal number of non-zero basis functions:       78 in task     3
  Selecting the method for density update.
  Loop over occupied states selected for charge density update.
  Integrating Hamiltonian matrix: batch-based integration.
  Time summed over all CPUs for integration: real work        0.170 s, elapsed        0.172 s
  Integrating overlap matrix.
  Time summed over all CPUs for integration: real work        0.061 s, elapsed        0.062 s

  Reading cluster restart information from file restart
  Writing Kohn-Sham eigenvalues.

  State    Occupation    Eigenvalue [Ha]    Eigenvalue [eV]
      1       2.00000         -18.889873         -514.01961
      2       2.00000         -18.889654         -514.01363
      3       2.00000          -1.267293          -34.48479
      4       2.00000          -0.701439          -19.08713
      5       2.00000          -0.502548          -13.67502
      6       2.00000          -0.502548          -13.67502
      7       2.00000          -0.494805          -13.46433
      8       1.00000          -0.186833           -5.08397
      9       1.00000          -0.186833           -5.08397
     10       0.00000           0.098748            2.68707
     11       0.00000           0.105369            2.86723
     12       0.00000           0.133112            3.62217
     13       0.00000           0.000000            0.00000
     14       0.00000           0.000000            0.00000

  Highest occupied state (VBM) at     -5.08397175 eV
  | Occupation number:      1.00000238

  Lowest unoccupied state (CBM) at    -5.08397171 eV
  | Occupation number:      0.99999762

  Overall HOMO-LUMO gap:      0.00000004 eV.
*** get_ev_sum_p0 expected pure occ_numbers
*** sum(occ_numbers) =  1.6000000000210331E+01 instead of  1.5000000000000000E+01
  Calculating total energy contributions from superposition of free atom densities.
*** get_entropy_correction expected pure occ_numbers
*** sum(occ_numbers) =  1.6000000000210331E+01 instead of  1.5000000000000000E+01
*** get_penalty_energy expected pure occ_numbers
*** sum(occ_numbers) =  1.6000000000210331E+01 instead of  1.5000000000000000E+01

  Total energy components:
  | Sum of eigenvalues            :         -82.86998455 Ha       -2255.00701319 eV
  | XC energy correction          :         -16.82076958 Ha        -457.71642865 eV
  | XC potential correction       :          21.62723192 Ha         588.50692347 eV
  | Free-atom electrostatic energy:         -71.50995773 Ha       -1945.88495550 eV
  | Hartree energy correction     :           0.00000000 Ha           0.00000000 eV
  | Entropy correction            :          -0.00020734 Ha          -0.00564190 eV
  | ---------------------------
  | Total energy                  :        -149.57347995 Ha       -4070.10147387 eV
  | Total energy, T -> 0          :        -149.57368728 Ha       -4070.10711577 eV  <-- do not rely on this value for anything but (periodic) metals
  | Electronic free energy        :        -149.57389462 Ha       -4070.11275766 eV

  Derived energy quantities:
  | Kinetic energy                :         150.56069104 Ha        4096.96485452 eV
  | Electrostatic energy          :        -283.31340141 Ha       -7709.34989974 eV
  | Energy correction for multipole
  | error in Hartree potential    :           0.00000000 Ha           0.00000000 eV
  | Sum of eigenvalues per atom                           :       -1127.50350659 eV
  | Total energy (T->0) per atom                          :       -2035.05355788 eV  <-- do not rely on this value for anything but (periodic) metals
  | Electronic free energy per atom                       :       -2035.05637883 eV
  Initialize hartree_potential_storage
  Max. number of atoms included in rho_multipole:            2

  End scf initialization - timings             :  max(cpu_time)    wall_clock(cpu1)
  | Time for scf. initialization               :        0.123 s           0.122 s
  | Boundary condition initialization          :        0.000 s           0.001 s
  | Integration                                :        0.059 s           0.059 s
  | Solution of K.-S. eqns.                    :        0.002 s           0.001 s
  | Grid partitioning                          :        0.021 s           0.021 s
  | Preloading free-atom quantities on grid    :        0.017 s           0.017 s
  | Free-atom superposition energy             :        0.009 s           0.009 s
  | Total energy evaluation                    :        0.002 s           0.001 s
------------------------------------------------------------

------------------------------------------------------------
          Initial SCF-cycle to compute last known
          density from restart information.

  Date     :  20190722, Time     :  144410.465
------------------------------------------------------------
*** scf_solver:charge expected kweighted occ_numbers
*** sum(occ_numbers) =  1.6000000000210331E+01 instead of  1.5000000000000000E+01
  Evaluating new KS density.
*** update_density_and_forces_p2 expected kweighted occ_numbers
*** sum(occ_numbers) =  1.6000000000210331E+01 instead of  1.5000000000000000E+01
  Integration grid: deviation in total charge (<rho> - N_e) =   1.000000E+00

  Evaluating partitioned Hartree potential by multipole expansion.
  | Analytical far-field extrapolation by fixed multipoles:
  | Hartree multipole sum: apparent total charge =  -0.177401E-06
  Summing up the Hartree potential.
  Time summed over all CPUs for potential: real work        0.097 s, elapsed        0.098 s
  | RMS charge density error from multipole expansion :   0.646459E-03

  Integrating Hamiltonian matrix: batch-based integration.
  Time summed over all CPUs for integration: real work        0.165 s, elapsed        0.167 s

  Updating Kohn-Sham eigenvalues, eigenvectors, occupation numbers, and Fermi level.
  Solving generalized eigenproblem
  Updating Kohn-Sham eigenvalues and eigenfunctions.
  Transforming overlap matrix and checking for singularities.
  Overlap matrix is nonsingular:
  | Lowest eigenvalue:  0.185756E-03
  Solving real generalised eigenvalue problem by standard LAPACK (fast)
 BIG  0.999999996530130     
 FORCED TO: now -- previous           8           9           9           8
  Determining occupation numbers for Kohn-Sham eigenstates.
  | Chemical potential (Fermi level) in eV                 : -.8085E+01
  | Error in electron count due to remaining E_F inaccuracy: 0.0000E+00

  Highest occupied state (VBM) at    -13.46433154 eV
  | Occupation number:      2.00000000

  Lowest unoccupied state (CBM) at    -5.08397482 eV
  | Occupation number:      0.50000000

  Overall HOMO-LUMO gap:      8.38035672 eV.

  Total energy components:
  | Sum of eigenvalues            :         -82.68315324 Ha       -2249.92307450 eV
  | XC energy correction          :         -16.91594961 Ha        -460.30640910 eV
  | XC potential correction       :          21.75097603 Ha         591.87417209 eV
  | Free-atom electrostatic energy:         -71.50995773 Ha       -1945.88495550 eV
  | Hartree energy correction     :          -0.65622950 Ha         -17.85691322 eV
  | Entropy correction            :           0.00000000 Ha           0.00000000 eV
  | ---------------------------
  | Total energy                  :        -150.01431405 Ha       -4082.09718023 eV
  | Total energy, T -> 0          :        -150.01431405 Ha       -4082.09718023 eV  <-- do not rely on this value for anything but (periodic) metals
  | Electronic free energy        :        -150.01431405 Ha       -4082.09718023 eV

  Derived energy quantities:
  | Kinetic energy                :         150.39445626 Ha        4092.44137594 eV
  | Electrostatic energy          :        -283.49282070 Ha       -7714.23214708 eV
  | Energy correction for multipole
  | error in Hartree potential    :          -0.00059256 Ha          -0.01612446 eV
  | Sum of eigenvalues per atom                           :       -1124.96153725 eV
  | Total energy (T->0) per atom                          :       -2041.04859012 eV  <-- do not rely on this value for anything but (periodic) metals
  | Electronic free energy per atom                       :       -2041.04859012 eV

  Self-consistency convergence accuracy:
  | Change of charge density      :  0.1358E+00
  | Change of sum of eigenvalues  :  0.5084E+01 eV
  | Change of total energy        : -0.1200E+02 eV

  End self-consistency iteration #     0       :  max(cpu_time)    wall_clock(cpu1)
  | Time for this iteration                    :        0.114 s           0.113 s
  | Charge density update                      :        0.033 s           0.031 s
  | Density mixing                             :        0.001 s           0.001 s
  | Hartree multipole update                   :        0.004 s           0.004 s
  | Hartree multipole summation                :        0.026 s           0.025 s
  | Integration                                :        0.042 s           0.042 s
  | Solution of K.-S. eqns.                    :        0.009 s           0.009 s
  | Total energy evaluation                    :        0.000 s           0.001 s
------------------------------------------------------------

------------------------------------------------------------
          Begin self-consistency iteration #    1

  Date     :  20190722, Time     :  144410.580
------------------------------------------------------------
  Evaluating new KS density.
  Integration grid: deviation in total charge (<rho> - N_e) =   2.486900E-14
  Pulay mixing of updated and previous charge densities.

  Evaluating partitioned Hartree potential by multipole expansion.
  | Analytical far-field extrapolation by fixed multipoles:
  | Hartree multipole sum: apparent total charge =   0.200000E+00
  Summing up the Hartree potential.
  Time summed over all CPUs for potential: real work        0.097 s, elapsed        0.097 s
  | RMS charge density error from multipole expansion :   0.568934E-03

  Integrating Hamiltonian matrix: batch-based integration.
  Time summed over all CPUs for integration: real work        0.166 s, elapsed        0.168 s

  Updating Kohn-Sham eigenvalues, eigenvectors, occupation numbers, and Fermi level.
  Solving generalized eigenproblem
  Updating Kohn-Sham eigenvalues and eigenfunctions.
  Solving real generalised eigenvalue problem by standard LAPACK (fast)
 BIG  0.999254795767501     
 FORCED TO: now -- previous           8           9           8           9
  Determining occupation numbers for Kohn-Sham eigenstates.
  | Chemical potential (Fermi level) in eV                 : -.9597E+01
  | Error in electron count due to remaining E_F inaccuracy: 0.0000E+00

  Writing Kohn-Sham eigenvalues.

  State    Occupation    Eigenvalue [Ha]    Eigenvalue [eV]
      1       2.00000         -19.044719         -518.23316
      2       2.00000         -19.044500         -518.22721
      3       2.00000          -1.391441          -37.86303
      4       2.00000          -0.812975          -22.12216
      5       2.00000          -0.616512          -16.77615
      6       2.00000          -0.616512          -16.77614
      7       2.00000          -0.606202          -16.49560
      8       0.50000          -0.300075           -8.16546
      9       0.50000          -0.300075           -8.16546
     10       0.00000           0.042790            1.16439
     11       0.00000           0.050113            1.36365
     12       0.00000           0.078170            2.12712
     13       0.00000           0.078170            2.12712
     14       0.00000           0.157547            4.28708

  Highest occupied state (VBM) at    -16.49560451 eV
  | Occupation number:      2.00000000

  Lowest unoccupied state (CBM) at    -8.16545821 eV
  | Occupation number:      0.50000000

  Overall HOMO-LUMO gap:      8.33014631 eV.

  Total energy components:
  | Sum of eigenvalues            :         -84.56579525 Ha       -2301.15236997 eV
  | XC energy correction          :         -16.76353467 Ha        -456.15898761 eV
  | XC potential correction       :          21.55138761 Ha         586.44309488 eV
  | Free-atom electrostatic energy:         -71.50995773 Ha       -1945.88495550 eV
  | Hartree energy correction     :           1.36996971 Ha          37.27877249 eV
  | Entropy correction            :           0.00000000 Ha           0.00000000 eV
  | ---------------------------
  | Total energy                  :        -149.91793033 Ha       -4079.47444571 eV
  | Total energy, T -> 0          :        -149.91793033 Ha       -4079.47444571 eV  <-- do not rely on this value for anything but (periodic) metals
  | Electronic free energy        :        -149.91793033 Ha       -4079.47444571 eV

  Derived energy quantities:
  | Kinetic energy                :         149.84166286 Ha        4077.39910211 eV
  | Electrostatic energy          :        -282.99605851 Ha       -7700.71456021 eV
  | Energy correction for multipole
  | error in Hartree potential    :          -0.00047716 Ha          -0.01298412 eV
  | Sum of eigenvalues per atom                           :       -1150.57618499 eV
  | Total energy (T->0) per atom                          :       -2039.73722285 eV  <-- do not rely on this value for anything but (periodic) metals
  | Electronic free energy per atom                       :       -2039.73722285 eV

  Self-consistency convergence accuracy:
  | Change of charge density      :  0.2168E+00
  | Change of sum of eigenvalues  : -0.5123E+02 eV
  | Change of total energy        :  0.2623E+01 eV

  End self-consistency iteration #     1       :  max(cpu_time)    wall_clock(cpu1)
  | Time for this iteration                    :        0.106 s           0.105 s
  | Charge density update                      :        0.030 s           0.029 s
  | Density mixing                             :        0.001 s           0.001 s
  | Hartree multipole update                   :        0.004 s           0.003 s
  | Hartree multipole summation                :        0.026 s           0.026 s
  | Integration                                :        0.043 s           0.042 s
  | Solution of K.-S. eqns.                    :        0.001 s           0.001 s
  | Total energy evaluation                    :        0.000 s           0.001 s
------------------------------------------------------------

------------------------------------------------------------
          Begin self-consistency iteration #    2

  Date     :  20190722, Time     :  144410.686
------------------------------------------------------------
  Evaluating new KS density.
  Integration grid: deviation in total charge (<rho> - N_e) =  -1.421085E-14
  Pulay mixing of updated and previous charge densities.

  Evaluating partitioned Hartree potential by multipole expansion.
  | Analytical far-field extrapolation by fixed multipoles:
  | Hartree multipole sum: apparent total charge =   0.551827E+00
  Summing up the Hartree potential.
  Time summed over all CPUs for potential: real work        0.096 s, elapsed        0.096 s
  | RMS charge density error from multipole expansion :   0.499238E-03

  Integrating Hamiltonian matrix: batch-based integration.
  Time summed over all CPUs for integration: real work        0.165 s, elapsed        0.167 s

  Updating Kohn-Sham eigenvalues, eigenvectors, occupation numbers, and Fermi level.
  Solving generalized eigenproblem
  Updating Kohn-Sham eigenvalues and eigenfunctions.
  Solving real generalised eigenvalue problem by standard LAPACK (fast)
 BIG  0.999073301147828     
 FORCED TO: now -- previous           8           9           8           9
  Determining occupation numbers for Kohn-Sham eigenstates.
  | Chemical potential (Fermi level) in eV                 : -.1738E+02
  | Error in electron count due to remaining E_F inaccuracy: 0.0000E+00

  Highest occupied state (VBM) at    -21.31586114 eV
  | Occupation number:      2.00000000

  Lowest unoccupied state (CBM) at   -13.08739195 eV
  | Occupation number:      0.50000000

  Overall HOMO-LUMO gap:      8.22846919 eV.

  Total energy components:
  | Sum of eigenvalues            :         -87.47618701 Ha       -2380.34815944 eV
  | XC energy correction          :         -16.54916487 Ha        -450.32568835 eV
  | XC potential correction       :          21.27064019 Ha         578.80356886 eV
  | Free-atom electrostatic energy:         -71.50995773 Ha       -1945.88495550 eV
  | Hartree energy correction     :           4.43983181 Ha         120.81397044 eV
  | Entropy correction            :           0.00000000 Ha           0.00000000 eV
  | ---------------------------
  | Total energy                  :        -149.82483762 Ha       -4076.94126401 eV
  | Total energy, T -> 0          :        -149.82483762 Ha       -4076.94126401 eV  <-- do not rely on this value for anything but (periodic) metals
  | Electronic free energy        :        -149.82483762 Ha       -4076.94126401 eV

  Derived energy quantities:
  | Kinetic energy                :         149.14689642 Ha        4058.49354547 eV
  | Electrostatic energy          :        -282.42256917 Ha       -7685.10912113 eV
  | Energy correction for multipole
  | error in Hartree potential    :          -0.00037144 Ha          -0.01010750 eV
  | Sum of eigenvalues per atom                           :       -1190.17407972 eV
  | Total energy (T->0) per atom                          :       -2038.47063200 eV  <-- do not rely on this value for anything but (periodic) metals
  | Electronic free energy per atom                       :       -2038.47063200 eV

  Self-consistency convergence accuracy:
  | Change of charge density      :  0.1326E+00
  | Change of sum of eigenvalues  : -0.7920E+02 eV
  | Change of total energy        :  0.2533E+01 eV

  End self-consistency iteration #     2       :  max(cpu_time)    wall_clock(cpu1)
  | Time for this iteration                    :        0.105 s           0.105 s
  | Charge density update                      :        0.030 s           0.030 s
  | Density mixing                             :        0.002 s           0.002 s
  | Hartree multipole update                   :        0.004 s           0.003 s
  | Hartree multipole summation                :        0.026 s           0.026 s
  | Integration                                :        0.042 s           0.042 s
  | Solution of K.-S. eqns.                    :        0.000 s           0.001 s
  | Total energy evaluation                    :        0.001 s           0.001 s
------------------------------------------------------------

------------------------------------------------------------
          Begin self-consistency iteration #    3

  Date     :  20190722, Time     :  144410.792
------------------------------------------------------------
  Evaluating new KS density.
  Integration grid: deviation in total charge (<rho> - N_e) =   1.065814E-14
  Pulay mixing of updated and previous charge densities.

  Evaluating partitioned Hartree potential by multipole expansion.
  | Analytical far-field extrapolation by fixed multipoles:
  | Hartree multipole sum: apparent total charge =   0.102697E+01
  Summing up the Hartree potential.
  Time summed over all CPUs for potential: real work        0.097 s, elapsed        0.097 s
  | RMS charge density error from multipole expansion :   0.485437E-03

  Integrating Hamiltonian matrix: batch-based integration.
  Time summed over all CPUs for integration: real work        0.165 s, elapsed        0.168 s

  Updating Kohn-Sham eigenvalues, eigenvectors, occupation numbers, and Fermi level.
  Solving generalized eigenproblem
  Updating Kohn-Sham eigenvalues and eigenfunctions.
  Solving real generalised eigenvalue problem by standard LAPACK (fast)
 BIG  0.999782284151964     
 FORCED TO: now -- previous           9           8           8           9
  Determining occupation numbers for Kohn-Sham eigenstates.
  | Chemical potential (Fermi level) in eV                 : -.2542E+02
  | Error in electron count due to remaining E_F inaccuracy: 0.0000E+00

  Highest occupied state (VBM) at    -26.22976610 eV
  | Occupation number:      2.00000000

  Lowest unoccupied state (CBM) at   -18.07374832 eV
  | Occupation number:      0.50000000

  Overall HOMO-LUMO gap:      8.15601778 eV.

  Total energy components:
  | Sum of eigenvalues            :         -90.18832358 Ha       -2454.14915029 eV
  | XC energy correction          :         -16.41702953 Ha        -446.73010298 eV
  | XC potential correction       :          21.09749733 Ha         574.09211185 eV
  | Free-atom electrostatic energy:         -71.50995773 Ha       -1945.88495550 eV
  | Hartree energy correction     :           7.22402678 Ha         196.57577039 eV
  | Entropy correction            :           0.00000000 Ha           0.00000000 eV
  | ---------------------------
  | Total energy                  :        -149.79378673 Ha       -4076.09632653 eV
  | Total energy, T -> 0          :        -149.79378673 Ha       -4076.09632653 eV  <-- do not rely on this value for anything but (periodic) metals
  | Electronic free energy        :        -149.79378673 Ha       -4076.09632653 eV

  Derived energy quantities:
  | Kinetic energy                :         149.27408642 Ha        4061.95456139 eV
  | Electrostatic energy          :        -282.65084362 Ha       -7691.32078494 eV
  | Energy correction for multipole
  | error in Hartree potential    :          -0.00052789 Ha          -0.01436475 eV
  | Sum of eigenvalues per atom                           :       -1227.07457515 eV
  | Total energy (T->0) per atom                          :       -2038.04816327 eV  <-- do not rely on this value for anything but (periodic) metals
  | Electronic free energy per atom                       :       -2038.04816327 eV

  Self-consistency convergence accuracy:
  | Change of charge density      :  0.5890E-01
  | Change of sum of eigenvalues  : -0.7380E+02 eV
  | Change of total energy        :  0.8449E+00 eV

  End self-consistency iteration #     3       :  max(cpu_time)    wall_clock(cpu1)
  | Time for this iteration                    :        0.105 s           0.105 s
  | Charge density update                      :        0.030 s           0.030 s
  | Density mixing                             :        0.002 s           0.002 s
  | Hartree multipole update                   :        0.003 s           0.003 s
  | Hartree multipole summation                :        0.025 s           0.025 s
  | Integration                                :        0.043 s           0.043 s
  | Solution of K.-S. eqns.                    :        0.001 s           0.001 s
  | Total energy evaluation                    :        0.000 s           0.001 s
------------------------------------------------------------

------------------------------------------------------------
          Begin self-consistency iteration #    4

  Date     :  20190722, Time     :  144410.898
------------------------------------------------------------
  Evaluating new KS density.
  Integration grid: deviation in total charge (<rho> - N_e) =  -1.776357E-15
  Pulay mixing of updated and previous charge densities.

  Evaluating partitioned Hartree potential by multipole expansion.
  | Analytical far-field extrapolation by fixed multipoles:
  | Hartree multipole sum: apparent total charge =   0.993694E+00
  Summing up the Hartree potential.
  Time summed over all CPUs for potential: real work        0.097 s, elapsed        0.098 s
  | RMS charge density error from multipole expansion :   0.482172E-03

  Integrating Hamiltonian matrix: batch-based integration.
  Time summed over all CPUs for integration: real work        0.166 s, elapsed        0.167 s

  Updating Kohn-Sham eigenvalues, eigenvectors, occupation numbers, and Fermi level.
  Solving generalized eigenproblem
  Updating Kohn-Sham eigenvalues and eigenfunctions.
  Solving real generalised eigenvalue problem by standard LAPACK (fast)
 BIG  0.999983525856958     
 FORCED TO: now -- previous           9           8           9           8
  Determining occupation numbers for Kohn-Sham eigenstates.
  | Chemical potential (Fermi level) in eV                 : -.2503E+02
  | Error in electron count due to remaining E_F inaccuracy: 0.0000E+00

  Highest occupied state (VBM) at    -25.65621363 eV
  | Occupation number:      2.00000000

  Lowest unoccupied state (CBM) at   -17.48418589 eV
  | Occupation number:      0.50000000

  Overall HOMO-LUMO gap:      8.17202774 eV.

  Total energy components:
  | Sum of eigenvalues            :         -89.82871373 Ha       -2444.36366833 eV
  | XC energy correction          :         -16.44733894 Ha        -447.55486381 eV
  | XC potential correction       :          21.13718944 Ha         575.17218899 eV
  | Free-atom electrostatic energy:         -71.50995773 Ha       -1945.88495550 eV
  | Hartree energy correction     :           6.85571471 Ha         186.55348897 eV
  | Entropy correction            :           0.00000000 Ha           0.00000000 eV
  | ---------------------------
  | Total energy                  :        -149.79310625 Ha       -4076.07780969 eV
  | Total energy, T -> 0          :        -149.79310625 Ha       -4076.07780969 eV  <-- do not rely on this value for anything but (periodic) metals
  | Electronic free energy        :        -149.79310625 Ha       -4076.07780969 eV

  Derived energy quantities:
  | Kinetic energy                :         149.43476523 Ha        4066.32685446 eV
  | Electrostatic energy          :        -282.78053255 Ha       -7694.84980034 eV
  | Energy correction for multipole
  | error in Hartree potential    :          -0.00055362 Ha          -0.01506477 eV
  | Sum of eigenvalues per atom                           :       -1222.18183417 eV
  | Total energy (T->0) per atom                          :       -2038.03890485 eV  <-- do not rely on this value for anything but (periodic) metals
  | Electronic free energy per atom                       :       -2038.03890485 eV

  Self-consistency convergence accuracy:
  | Change of charge density      :  0.2412E-01
  | Change of sum of eigenvalues  :  0.9785E+01 eV
  | Change of total energy        :  0.1852E-01 eV

  End self-consistency iteration #     4       :  max(cpu_time)    wall_clock(cpu1)
  | Time for this iteration                    :        0.105 s           0.106 s
  | Charge density update                      :        0.031 s           0.031 s
  | Density mixing                             :        0.002 s           0.002 s
  | Hartree multipole update                   :        0.005 s           0.003 s
  | Hartree multipole summation                :        0.025 s           0.025 s
  | Integration                                :        0.042 s           0.042 s
  | Solution of K.-S. eqns.                    :        0.001 s           0.001 s
  | Total energy evaluation                    :        0.000 s           0.000 s
------------------------------------------------------------

------------------------------------------------------------
          Begin self-consistency iteration #    5

  Date     :  20190722, Time     :  144411.005
------------------------------------------------------------
  Evaluating new KS density.
  Integration grid: deviation in total charge (<rho> - N_e) =  -3.552714E-15
  Pulay mixing of updated and previous charge densities.

  Evaluating partitioned Hartree potential by multipole expansion.
  | Analytical far-field extrapolation by fixed multipoles:
  | Hartree multipole sum: apparent total charge =   0.999220E+00
  Summing up the Hartree potential.
  Time summed over all CPUs for potential: real work        0.096 s, elapsed        0.096 s
  | RMS charge density error from multipole expansion :   0.493686E-03

  Integrating Hamiltonian matrix: batch-based integration.
  Time summed over all CPUs for integration: real work        0.166 s, elapsed        0.167 s

  Updating Kohn-Sham eigenvalues, eigenvectors, occupation numbers, and Fermi level.
  Solving generalized eigenproblem
  Updating Kohn-Sham eigenvalues and eigenfunctions.
  Solving real generalised eigenvalue problem by standard LAPACK (fast)
 BIG  0.998389394893914     
 FORCED TO: now -- previous           9           8           9           8
  Determining occupation numbers for Kohn-Sham eigenstates.
  | Chemical potential (Fermi level) in eV                 : -.2500E+02
  | Error in electron count due to remaining E_F inaccuracy: 0.0000E+00

  Highest occupied state (VBM) at    -25.61433371 eV
  | Occupation number:      2.00000000

  Lowest unoccupied state (CBM) at   -17.44280046 eV
  | Occupation number:      0.50000000

  Overall HOMO-LUMO gap:      8.17153325 eV.

  Total energy components:
  | Sum of eigenvalues            :         -89.80043341 Ha       -2443.59412184 eV
  | XC energy correction          :         -16.45305613 Ha        -447.71043661 eV
  | XC potential correction       :          21.14478610 Ha         575.37890485 eV
  | Free-atom electrostatic energy:         -71.50995773 Ha       -1945.88495550 eV
  | Hartree energy correction     :           6.82557975 Ha         185.73347492 eV
  | Entropy correction            :           0.00000000 Ha           0.00000000 eV
  | ---------------------------
  | Total energy                  :        -149.79308143 Ha       -4076.07713418 eV
  | Total energy, T -> 0          :        -149.79308143 Ha       -4076.07713418 eV  <-- do not rely on this value for anything but (periodic) metals
  | Electronic free energy        :        -149.79308143 Ha       -4076.07713418 eV

  Derived energy quantities:
  | Kinetic energy                :         149.45609365 Ha        4066.90723025 eV
  | Electrostatic energy          :        -282.79611895 Ha       -7695.27392782 eV
  | Energy correction for multipole
  | error in Hartree potential    :          -0.00054554 Ha          -0.01484493 eV
  | Sum of eigenvalues per atom                           :       -1221.79706092 eV
  | Total energy (T->0) per atom                          :       -2038.03856709 eV  <-- do not rely on this value for anything but (periodic) metals
  | Electronic free energy per atom                       :       -2038.03856709 eV

  Self-consistency convergence accuracy:
  | Change of charge density      :  0.6847E-02
  | Change of sum of eigenvalues  :  0.7695E+00 eV
  | Change of total energy        :  0.6755E-03 eV

  End self-consistency iteration #     5       :  max(cpu_time)    wall_clock(cpu1)
  | Time for this iteration                    :        0.105 s           0.104 s
  | Charge density update                      :        0.030 s           0.029 s
  | Density mixing                             :        0.002 s           0.002 s
  | Hartree multipole update                   :        0.005 s           0.004 s
  | Hartree multipole summation                :        0.026 s           0.025 s
  | Integration                                :        0.042 s           0.042 s
  | Solution of K.-S. eqns.                    :        0.001 s           0.001 s
  | Total energy evaluation                    :        0.000 s           0.001 s
------------------------------------------------------------

------------------------------------------------------------
          Begin self-consistency iteration #    6

  Date     :  20190722, Time     :  144411.110
------------------------------------------------------------
  Evaluating new KS density.
  Integration grid: deviation in total charge (<rho> - N_e) =  -1.421085E-14
  Pulay mixing of updated and previous charge densities.

  Evaluating partitioned Hartree potential by multipole expansion.
  | Analytical far-field extrapolation by fixed multipoles:
  | Hartree multipole sum: apparent total charge =   0.999581E+00
  Summing up the Hartree potential.
  Time summed over all CPUs for potential: real work        0.096 s, elapsed        0.096 s
  | RMS charge density error from multipole expansion :   0.494302E-03

  Integrating Hamiltonian matrix: batch-based integration.
  Time summed over all CPUs for integration: real work        0.166 s, elapsed        0.168 s

  Updating Kohn-Sham eigenvalues, eigenvectors, occupation numbers, and Fermi level.
  Solving generalized eigenproblem
  Updating Kohn-Sham eigenvalues and eigenfunctions.
  Solving real generalised eigenvalue problem by standard LAPACK (fast)
 BIG  0.999369889833041     
 FORCED TO: now -- previous           9           8           9           8
  Determining occupation numbers for Kohn-Sham eigenstates.
  | Chemical potential (Fermi level) in eV                 : -.2500E+02
  | Error in electron count due to remaining E_F inaccuracy: 0.0000E+00

  Highest occupied state (VBM) at    -25.61770702 eV
  | Occupation number:      2.00000000

  Lowest unoccupied state (CBM) at   -17.44475590 eV
  | Occupation number:      0.50000000

  Overall HOMO-LUMO gap:      8.17295111 eV.

  Total energy components:
  | Sum of eigenvalues            :         -89.80188275 Ha       -2443.63356027 eV
  | XC energy correction          :         -16.45289323 Ha        -447.70600372 eV
  | XC potential correction       :          21.14458358 Ha         575.37339391 eV
  | Free-atom electrostatic energy:         -71.50995773 Ha       -1945.88495550 eV
  | Hartree energy correction     :           6.82706879 Ha         185.77399377 eV
  | Entropy correction            :           0.00000000 Ha           0.00000000 eV
  | ---------------------------
  | Total energy                  :        -149.79308134 Ha       -4076.07713182 eV
  | Total energy, T -> 0          :        -149.79308134 Ha       -4076.07713182 eV  <-- do not rely on this value for anything but (periodic) metals
  | Electronic free energy        :        -149.79308134 Ha       -4076.07713182 eV

  Derived energy quantities:
  | Kinetic energy                :         149.45305497 Ha        4066.82454336 eV
  | Electrostatic energy          :        -282.79324308 Ha       -7695.19567146 eV
  | Energy correction for multipole
  | error in Hartree potential    :          -0.00054399 Ha          -0.01480277 eV
  | Sum of eigenvalues per atom                           :       -1221.81678014 eV
  | Total energy (T->0) per atom                          :       -2038.03856591 eV  <-- do not rely on this value for anything but (periodic) metals
  | Electronic free energy per atom                       :       -2038.03856591 eV

  Self-consistency convergence accuracy:
  | Change of charge density      :  0.6361E-03
  | Change of sum of eigenvalues  : -0.3944E-01 eV
  | Change of total energy        :  0.2360E-05 eV

  End self-consistency iteration #     6       :  max(cpu_time)    wall_clock(cpu1)
  | Time for this iteration                    :        0.106 s           0.106 s
  | Charge density update                      :        0.030 s           0.030 s
  | Density mixing                             :        0.002 s           0.002 s
  | Hartree multipole update                   :        0.005 s           0.004 s
  | Hartree multipole summation                :        0.025 s           0.025 s
  | Integration                                :        0.043 s           0.042 s
  | Solution of K.-S. eqns.                    :        0.001 s           0.001 s
  | Total energy evaluation                    :        0.000 s           0.000 s
------------------------------------------------------------

------------------------------------------------------------
          Begin self-consistency iteration #    7

  Date     :  20190722, Time     :  144411.217
------------------------------------------------------------
  Evaluating new KS density.
  Integration grid: deviation in total charge (<rho> - N_e) =   1.598721E-14
  Pulay mixing of updated and previous charge densities.

  Evaluating partitioned Hartree potential by multipole expansion.
  | Analytical far-field extrapolation by fixed multipoles:
  | Hartree multipole sum: apparent total charge =   0.100006E+01
  Summing up the Hartree potential.
  Time summed over all CPUs for potential: real work        0.096 s, elapsed        0.097 s
  | RMS charge density error from multipole expansion :   0.495244E-03

  Integrating Hamiltonian matrix: batch-based integration.
  Time summed over all CPUs for integration: real work        0.165 s, elapsed        0.166 s

  Updating Kohn-Sham eigenvalues, eigenvectors, occupation numbers, and Fermi level.
  Solving generalized eigenproblem
  Updating Kohn-Sham eigenvalues and eigenfunctions.
  Solving real generalised eigenvalue problem by standard LAPACK (fast)
 BIG  0.855242077788765     
 FORCED TO: now -- previous           9           8           9           8
  Determining occupation numbers for Kohn-Sham eigenstates.
  | Chemical potential (Fermi level) in eV                 : -.2500E+02
  | Error in electron count due to remaining E_F inaccuracy: 0.0000E+00

  Highest occupied state (VBM) at    -25.61236423 eV
  | Occupation number:      2.00000000

  Lowest unoccupied state (CBM) at   -17.43862696 eV
  | Occupation number:      0.50000000

  Overall HOMO-LUMO gap:      8.17373727 eV.

  Total energy components:
  | Sum of eigenvalues            :         -89.79763629 Ha       -2443.51800837 eV
  | XC energy correction          :         -16.45356305 Ha        -447.72423042 eV
  | XC potential correction       :          21.14547220 Ha         575.39757442 eV
  | Free-atom electrostatic energy:         -71.50995773 Ha       -1945.88495550 eV
  | Hartree energy correction     :           6.82260386 Ha         185.65249685 eV
  | Entropy correction            :           0.00000000 Ha           0.00000000 eV
  | ---------------------------
  | Total energy                  :        -149.79308102 Ha       -4076.07712302 eV
  | Total energy, T -> 0          :        -149.79308102 Ha       -4076.07712302 eV  <-- do not rely on this value for anything but (periodic) metals
  | Electronic free energy        :        -149.79308102 Ha       -4076.07712302 eV

  Derived energy quantities:
  | Kinetic energy                :         149.45609631 Ha        4066.90730257 eV
  | Electrostatic energy          :        -282.79561428 Ha       -7695.26019517 eV
  | Energy correction for multipole
  | error in Hartree potential    :          -0.00054353 Ha          -0.01479033 eV
  | Sum of eigenvalues per atom                           :       -1221.75900418 eV
  | Total energy (T->0) per atom                          :       -2038.03856151 eV  <-- do not rely on this value for anything but (periodic) metals
  | Electronic free energy per atom                       :       -2038.03856151 eV

  Self-consistency convergence accuracy:
  | Change of charge density      :  0.6400E-03
  | Change of sum of eigenvalues  :  0.1156E+00 eV
  | Change of total energy        :  0.8799E-05 eV

  End self-consistency iteration #     7       :  max(cpu_time)    wall_clock(cpu1)
  | Time for this iteration                    :        0.105 s           0.105 s
  | Charge density update                      :        0.030 s           0.029 s
  | Density mixing                             :        0.003 s           0.003 s
  | Hartree multipole update                   :        0.004 s           0.004 s
  | Hartree multipole summation                :        0.025 s           0.025 s
  | Integration                                :        0.042 s           0.042 s
  | Solution of K.-S. eqns.                    :        0.001 s           0.001 s
  | Total energy evaluation                    :        0.000 s           0.001 s
------------------------------------------------------------

------------------------------------------------------------
          Begin self-consistency iteration #    8

  Date     :  20190722, Time     :  144411.324
------------------------------------------------------------
  Evaluating new KS density.
  Integration grid: deviation in total charge (<rho> - N_e) =   7.105427E-15
  Pulay mixing of updated and previous charge densities.

  Evaluating partitioned Hartree potential by multipole expansion.
  | Analytical far-field extrapolation by fixed multipoles:
  | Hartree multipole sum: apparent total charge =   0.999986E+00
  Summing up the Hartree potential.
  Time summed over all CPUs for potential: real work        0.098 s, elapsed        0.099 s
  | RMS charge density error from multipole expansion :   0.495328E-03

  Integrating Hamiltonian matrix: batch-based integration.
  Time summed over all CPUs for integration: real work        0.169 s, elapsed        0.170 s

  Updating Kohn-Sham eigenvalues, eigenvectors, occupation numbers, and Fermi level.
  Solving generalized eigenproblem
  Updating Kohn-Sham eigenvalues and eigenfunctions.
  Solving real generalised eigenvalue problem by standard LAPACK (fast)
 BIG  0.947098972167750     
 FORCED TO: now -- previous           9           8           9           8
  Determining occupation numbers for Kohn-Sham eigenstates.
  | Chemical potential (Fermi level) in eV                 : -.2499E+02
  | Error in electron count due to remaining E_F inaccuracy: 0.0000E+00

  Highest occupied state (VBM) at    -25.61019133 eV
  | Occupation number:      2.00000000

  Lowest unoccupied state (CBM) at   -17.43644084 eV
  | Occupation number:      0.50000000

  Overall HOMO-LUMO gap:      8.17375049 eV.

  Total energy components:
  | Sum of eigenvalues            :         -89.79632107 Ha       -2443.48221935 eV
  | XC energy correction          :         -16.45369237 Ha        -447.72774966 eV
  | XC potential correction       :          21.14564304 Ha         575.40222316 eV
  | Free-atom electrostatic energy:         -71.50995773 Ha       -1945.88495550 eV
  | Hartree energy correction     :           6.82124713 Ha         185.61557851 eV
  | Entropy correction            :           0.00000000 Ha           0.00000000 eV
  | ---------------------------
  | Total energy                  :        -149.79308101 Ha       -4076.07712284 eV
  | Total energy, T -> 0          :        -149.79308101 Ha       -4076.07712284 eV  <-- do not rely on this value for anything but (periodic) metals
  | Electronic free energy        :        -149.79308101 Ha       -4076.07712284 eV

  Derived energy quantities:
  | Kinetic energy                :         149.45657071 Ha        4066.92021155 eV
  | Electrostatic energy          :        -282.79595934 Ha       -7695.26958474 eV
  | Energy correction for multipole
  | error in Hartree potential    :          -0.00054343 Ha          -0.01478745 eV
  | Sum of eigenvalues per atom                           :       -1221.74110968 eV
  | Total energy (T->0) per atom                          :       -2038.03856142 eV  <-- do not rely on this value for anything but (periodic) metals
  | Electronic free energy per atom                       :       -2038.03856142 eV

  Self-consistency convergence accuracy:
  | Change of charge density      :  0.6982E-04
  | Change of sum of eigenvalues  :  0.3579E-01 eV
  | Change of total energy        :  0.1762E-06 eV

  End self-consistency iteration #     8       :  max(cpu_time)    wall_clock(cpu1)
  | Time for this iteration                    :        0.115 s           0.115 s
  | Charge density update                      :        0.033 s           0.033 s
  | Density mixing                             :        0.003 s           0.003 s
  | Hartree multipole update                   :        0.005 s           0.005 s
  | Hartree multipole summation                :        0.026 s           0.026 s
  | Integration                                :        0.044 s           0.043 s
  | Solution of K.-S. eqns.                    :        0.003 s           0.002 s
  | Total energy evaluation                    :        0.002 s           0.001 s
------------------------------------------------------------

------------------------------------------------------------
          Begin self-consistency iteration #    9

  Date     :  20190722, Time     :  144411.440
------------------------------------------------------------
  Evaluating new KS density.
  Integration grid: deviation in total charge (<rho> - N_e) =   2.664535E-14
  Pulay mixing of updated and previous charge densities.

  Evaluating partitioned Hartree potential by multipole expansion.
  | Analytical far-field extrapolation by fixed multipoles:
  | Hartree multipole sum: apparent total charge =   0.999994E+00
  Summing up the Hartree potential.
  Time summed over all CPUs for potential: real work        0.096 s, elapsed        0.096 s
  | RMS charge density error from multipole expansion :   0.495330E-03

  Integrating Hamiltonian matrix: batch-based integration.
  Time summed over all CPUs for integration: real work        0.165 s, elapsed        0.167 s

  Updating Kohn-Sham eigenvalues, eigenvectors, occupation numbers, and Fermi level.
  Solving generalized eigenproblem
  Updating Kohn-Sham eigenvalues and eigenfunctions.
  Solving real generalised eigenvalue problem by standard LAPACK (fast)
 BIG  0.998965639073793     
 FORCED TO: now -- previous           9           8           9           8
  Determining occupation numbers for Kohn-Sham eigenstates.
  | Chemical potential (Fermi level) in eV                 : -.2499E+02
  | Error in electron count due to remaining E_F inaccuracy: 0.0000E+00

  Highest occupied state (VBM) at    -25.61030210 eV
  | Occupation number:      2.00000000

  Lowest unoccupied state (CBM) at   -17.43655449 eV
  | Occupation number:      0.50000000

  Overall HOMO-LUMO gap:      8.17374761 eV.

  Total energy components:
  | Sum of eigenvalues            :         -89.79638905 Ha       -2443.48406902 eV
  | XC energy correction          :         -16.45368767 Ha        -447.72762156 eV
  | XC potential correction       :          21.14563689 Ha         575.40205588 eV
  | Free-atom electrostatic energy:         -71.50995773 Ha       -1945.88495550 eV
  | Hartree energy correction     :           6.82131655 Ha         185.61746736 eV
  | Entropy correction            :           0.00000000 Ha           0.00000000 eV
  | ---------------------------
  | Total energy                  :        -149.79308101 Ha       -4076.07712284 eV
  | Total energy, T -> 0          :        -149.79308101 Ha       -4076.07712284 eV  <-- do not rely on this value for anything but (periodic) metals
  | Electronic free energy        :        -149.79308101 Ha       -4076.07712284 eV

  Derived energy quantities:
  | Kinetic energy                :         149.45655007 Ha        4066.91965010 eV
  | Electrostatic energy          :        -282.79594342 Ha       -7695.26915138 eV
  | Energy correction for multipole
  | error in Hartree potential    :          -0.00054342 Ha          -0.01478732 eV
  | Sum of eigenvalues per atom                           :       -1221.74203451 eV
  | Total energy (T->0) per atom                          :       -2038.03856142 eV  <-- do not rely on this value for anything but (periodic) metals
  | Electronic free energy per atom                       :       -2038.03856142 eV

  Self-consistency convergence accuracy:
  | Change of charge density      :  0.2003E-05
  | Change of sum of eigenvalues  : -0.1850E-02 eV
  | Change of total energy        :  0.9072E-09 eV

  Electronic self-consistency reached - switching on the force computation.

  End self-consistency iteration #     9       :  max(cpu_time)    wall_clock(cpu1)
  | Time for this iteration                    :        0.106 s           0.106 s
  | Charge density & force component update    :        0.030 s           0.031 s
  | Density mixing                             :        0.003 s           0.002 s
  | Hartree multipole update                   :        0.004 s           0.004 s
  | Hartree multipole summation                :        0.025 s           0.025 s
  | Integration                                :        0.042 s           0.042 s
  | Solution of K.-S. eqns.                    :        0.001 s           0.001 s
  | Total energy evaluation                    :        0.000 s           0.001 s
------------------------------------------------------------

------------------------------------------------------------
          Begin self-consistency iteration #   10

  Date     :  20190722, Time     :  144411.548
------------------------------------------------------------
  Evaluating new KS density.
  Integration grid: deviation in total charge (<rho> - N_e) =   7.105427E-15
  Pulay mixing of updated and previous charge densities.

  Evaluating partitioned Hartree potential by multipole expansion.
  | Analytical far-field extrapolation by fixed multipoles:
  | Hartree multipole sum: apparent total charge =   0.999999E+00
  Summing up the Hartree potential.
  Time summed over all CPUs for potential: real work        0.253 s, elapsed        0.260 s
  | RMS charge density error from multipole expansion :   0.495331E-03

  Integrating Hamiltonian matrix: batch-based integration.
  Time summed over all CPUs for integration: real work        0.165 s, elapsed        0.167 s

  Updating Kohn-Sham eigenvalues, eigenvectors, occupation numbers, and Fermi level.
  Solving generalized eigenproblem
  Updating Kohn-Sham eigenvalues and eigenfunctions.
  Solving real generalised eigenvalue problem by standard LAPACK (fast)
 BIG  0.994545301894124     
 FORCED TO: now -- previous           9           8           9           8
  Determining occupation numbers for Kohn-Sham eigenstates.
  | Chemical potential (Fermi level) in eV                 : -.2499E+02
  | Error in electron count due to remaining E_F inaccuracy: 0.0000E+00

  Highest occupied state (VBM) at    -25.61029657 eV
  | Occupation number:      2.00000000

  Lowest unoccupied state (CBM) at   -17.43654629 eV
  | Occupation number:      0.50000000

  Overall HOMO-LUMO gap:      8.17375027 eV.

  Total energy components:
  | Sum of eigenvalues            :         -89.79637985 Ha       -2443.48381878 eV
  | XC energy correction          :         -16.45369077 Ha        -447.72770592 eV
  | XC potential correction       :          21.14564100 Ha         575.40216772 eV
  | Free-atom electrostatic energy:         -71.50995773 Ha       -1945.88495550 eV
  | Hartree energy correction     :           6.82130634 Ha         185.61718964 eV
  | Entropy correction            :           0.00000000 Ha           0.00000000 eV
  | ---------------------------
  | Total energy                  :        -149.79308101 Ha       -4076.07712284 eV
  | Total energy, T -> 0          :        -149.79308101 Ha       -4076.07712284 eV  <-- do not rely on this value for anything but (periodic) metals
  | Electronic free energy        :        -149.79308101 Ha       -4076.07712284 eV

  Derived energy quantities:
  | Kinetic energy                :         149.45657656 Ha        4066.92037096 eV
  | Electrostatic energy          :        -282.79596681 Ha       -7695.26978788 eV
  | Energy correction for multipole
  | error in Hartree potential    :          -0.00054343 Ha          -0.01478736 eV
  | Sum of eigenvalues per atom                           :       -1221.74190939 eV
  | Total energy (T->0) per atom                          :       -2038.03856142 eV  <-- do not rely on this value for anything but (periodic) metals
  | Electronic free energy per atom                       :       -2038.03856142 eV

  atomic forces [eV/Ang]:
  -----------------------
  atom #    1
   Hellmann-Feynman              :  0.347304E-01  0.209021E-11 -0.155921E+02
   Ionic forces                  :  0.000000E+00  0.000000E+00  0.000000E+00
   Multipole                     :  0.133110E-03  0.142223E-12 -0.593845E-01
   Pulay + GGA                   :  0.000000E+00  0.000000E+00  0.000000E+00
   ----------------------------------------------------------------
   Total forces(   1)            :  0.348636E-01  0.223244E-11 -0.156514E+02
  atom #    2
   Hellmann-Feynman              : -0.347304E-01  0.552614E-12  0.155921E+02
   Ionic forces                  :  0.000000E+00  0.000000E+00  0.000000E+00
   Multipole                     : -0.133110E-03 -0.126627E-13  0.593845E-01
   Pulay + GGA                   :  0.000000E+00  0.000000E+00  0.000000E+00
   ----------------------------------------------------------------
   Total forces(   2)            : -0.348636E-01  0.539952E-12  0.156514E+02


  Self-consistency convergence accuracy:
  | Change of charge density      :  0.2939E-05
  | Change of sum of eigenvalues  :  0.2502E-03 eV
  | Change of total energy        :  0.6582E-09 eV
  | Change of forces              :  0.1565E+02 eV/A

  End self-consistency iteration #    10       :  max(cpu_time)    wall_clock(cpu1)
  | Time for this iteration                    :        0.148 s           0.147 s
  | Charge density & force component update    :        0.030 s           0.029 s
  | Density mixing                             :        0.003 s           0.003 s
  | Hartree multipole update                   :        0.004 s           0.004 s
  | Hartree multipole summation                :        0.066 s           0.066 s
  | Integration                                :        0.042 s           0.042 s
  | Solution of K.-S. eqns.                    :        0.001 s           0.001 s
  | Total energy evaluation                    :        0.001 s           0.002 s
------------------------------------------------------------

------------------------------------------------------------
          Begin self-consistency iteration #   11

  Date     :  20190722, Time     :  144411.697
------------------------------------------------------------
  Evaluating new KS density and force components.
  Integration grid: deviation in total charge (<rho> - N_e) =  -1.243450E-14
  Pulay mixing of updated and previous charge densities.

  Evaluating partitioned Hartree potential by multipole expansion.
  | Analytical far-field extrapolation by fixed multipoles:
  | Hartree multipole sum: apparent total charge =   0.999999E+00
  Summing up the Hartree potential.
  Time summed over all CPUs for potential: real work        0.254 s, elapsed        0.261 s
  | RMS charge density error from multipole expansion :   0.495332E-03

  Integrating Hamiltonian matrix: batch-based integration.
  Time summed over all CPUs for integration: real work        0.165 s, elapsed        0.167 s

  Updating Kohn-Sham eigenvalues, eigenvectors, occupation numbers, and Fermi level.
  Solving generalized eigenproblem
  Updating Kohn-Sham eigenvalues and eigenfunctions.
  Solving real generalised eigenvalue problem by standard LAPACK (fast)
 BIG   1.00000000000010     
 FORCED TO: now -- previous           9           8           9           8
  Determining occupation numbers for Kohn-Sham eigenstates.
  | Chemical potential (Fermi level) in eV                 : -.2499E+02
  | Error in electron count due to remaining E_F inaccuracy: 0.0000E+00

  Highest occupied state (VBM) at    -25.61029397 eV
  | Occupation number:      2.00000000

  Lowest unoccupied state (CBM) at   -17.43654361 eV
  | Occupation number:      0.50000000

  Overall HOMO-LUMO gap:      8.17375036 eV.

  Total energy components:
  | Sum of eigenvalues            :         -89.79637819 Ha       -2443.48377372 eV
  | XC energy correction          :         -16.45369095 Ha        -447.72771081 eV
  | XC potential correction       :          21.14564124 Ha         575.40217422 eV
  | Free-atom electrostatic energy:         -71.50995773 Ha       -1945.88495550 eV
  | Hartree energy correction     :           6.82130463 Ha         185.61714297 eV
  | Entropy correction            :           0.00000000 Ha           0.00000000 eV
  | ---------------------------
  | Total energy                  :        -149.79308101 Ha       -4076.07712284 eV
  | Total energy, T -> 0          :        -149.79308101 Ha       -4076.07712284 eV  <-- do not rely on this value for anything but (periodic) metals
  | Electronic free energy        :        -149.79308101 Ha       -4076.07712284 eV

  Derived energy quantities:
  | Kinetic energy                :         149.45657729 Ha        4066.92039059 eV
  | Electrostatic energy          :        -282.79596735 Ha       -7695.26980262 eV
  | Energy correction for multipole
  | error in Hartree potential    :          -0.00054343 Ha          -0.01478735 eV
  | Sum of eigenvalues per atom                           :       -1221.74188686 eV
  | Total energy (T->0) per atom                          :       -2038.03856142 eV  <-- do not rely on this value for anything but (periodic) metals
  | Electronic free energy per atom                       :       -2038.03856142 eV

  atomic forces [eV/Ang]:
  -----------------------
  atom #    1
   Hellmann-Feynman              :  0.347305E-01  0.288143E-11 -0.155921E+02
   Ionic forces                  :  0.000000E+00  0.000000E+00  0.000000E+00
   Multipole                     :  0.133110E-03 -0.546871E-13 -0.593845E-01
   Pulay + GGA                   : -0.348634E-01  0.913439E-13  0.156517E+02
   ----------------------------------------------------------------
   Total forces(   1)            :  0.150896E-06  0.291809E-11  0.297222E-03
  atom #    2
   Hellmann-Feynman              : -0.347305E-01 -0.104392E-10  0.155921E+02
   Ionic forces                  :  0.000000E+00  0.000000E+00  0.000000E+00
   Multipole                     : -0.133110E-03 -0.979296E-13  0.593845E-01
   Pulay + GGA                   :  0.348634E-01 -0.640835E-12 -0.156517E+02
   ----------------------------------------------------------------
   Total forces(   2)            : -0.150907E-06 -0.111779E-10 -0.297222E-03


  Self-consistency convergence accuracy:
  | Change of charge density      :  0.1416E-06
  | Change of sum of eigenvalues  :  0.4506E-04 eV
  | Change of total energy        : -0.4176E-10 eV
  | Change of forces              :  0.6519E-06 eV/A

  Writing Kohn-Sham eigenvalues.

  State    Occupation    Eigenvalue [Ha]    Eigenvalue [eV]
      1       2.00000         -19.412611         -528.24402
      2       2.00000         -19.412392         -528.23807
      3       2.00000          -1.743891          -47.45368
      4       2.00000          -1.151970          -31.34671
      5       2.00000          -0.957887          -26.06542
      6       2.00000          -0.957887          -26.06542
      7       2.00000          -0.941161          -25.61029
      8       0.50000          -0.640781          -17.43654
      9       0.50000          -0.640781          -17.43654
     10       0.00000          -0.181165           -4.92975
     11       0.00000          -0.160859           -4.37719
     12       0.00000          -0.115282           -3.13697
     13       0.00000          -0.115282           -3.13697
     14       0.00000          -0.061532           -1.67436

  Highest occupied state (VBM) at    -25.61029397 eV
  | Occupation number:      2.00000000

  Lowest unoccupied state (CBM) at   -17.43654361 eV
  | Occupation number:      0.50000000

  Overall HOMO-LUMO gap:      8.17375036 eV.

  Self-consistency cycle converged.

  End self-consistency iteration #    11       :  max(cpu_time)    wall_clock(cpu1)
  | Time for this iteration                    :        0.217 s           0.217 s
  | Charge density & force component update    :        0.099 s           0.098 s
  | Density mixing                             :        0.003 s           0.003 s
  | Hartree multipole update                   :        0.004 s           0.004 s
  | Hartree multipole summation                :        0.066 s           0.066 s
  | Integration                                :        0.042 s           0.042 s
  | Solution of K.-S. eqns.                    :        0.001 s           0.001 s
  | Total energy evaluation                    :        0.001 s           0.002 s
------------------------------------------------------------
  Writing cluster restart information to file restart
  ------------------------------------------------------------
   Computing monopole / dipole moments for complete molecule:
  | Total electronic charge [e]         :          0.150000000280054E+02
  | Total ionic charge [e]              :          0.160000000000000E+02
  | Total charge [e]                    :          0.999999971994573E+00
 * Warning: The system has a total charge of      0.99999997 .
 * The dipole moment depends on the choice of the origin.
  | Total dipole moment [eAng]          :          0.124999996499447E-02         0.227658080026449E-15         0.603749983091941E+00
  | Absolute dipole moment              :          0.603751277086377E+00 eAng              /                   0.289948902059624E+01 Debye  .
  Removing unitary transformations (pure translations, rotations) from forces on atoms.
  Atomic forces before filtering:
  | Net force on center of mass :  -0.109593E-10 -0.825984E-11 -0.302926E-10 eV/A
  | Net torque on center of mass:   0.791337E-11 -0.912485E-06  0.176200E-13 eV
  Atomic forces after filtering:
  | Net force on center of mass :   0.000000E+00  0.212677E-22  0.000000E+00 eV/A
  | Net torque on center of mass:   0.596974E-22  0.900349E-22  0.132923E-24 eV

  Energy and forces in a compact form:
  | Total energy uncorrected      :         -0.407607712284149E+04 eV
  | Total energy corrected        :         -0.407607712284149E+04 eV  <-- do not rely on this value for anything but (periodic) metals
  | Electronic free energy        :         -0.407607712284149E+04 eV
  Total atomic forces (unitary forces cleaned) [eV/Ang]:
  |   1         -0.661794479207340E-06          0.638030019257423E-22          0.297220408641841E-03
  |   2          0.661794479207340E-06         -0.425353346171615E-22         -0.297220408641841E-03

  ------------------------------------ 
  Start decomposition of the XC Energy 
  ------------------------------------ 
  Hartree-Fock part   :          0.000000000 Ha              0.000000000 eV
  ------------------------------------ 
  X Energy            :        -15.950250225 Ha           -434.028391735 eV
  C Energy GGA        :         -0.503440723 Ha            -13.699319079 eV
  Total XC Energy     :        -16.453690947 Ha           -447.727710814 eV
  LDA X and C from self-consistent density 
  X Energy LDA        :        -14.465846841 Ha           -393.635720506 eV
  C Energy LDA        :         -1.061660360 Ha            -28.889248273 eV
  ------------------------------------ 
  End decomposition of the XC Energy 
  ------------------------------------ 

------------------------------------------------------------------------------
  Final output of selected total energy values:

  The following output summarizes some interesting total energy values
  at the end of a run (AFTER all relaxation, molecular dynamics, etc.).

  | Total energy of the DFT / Hartree-Fock s.c.f. calculation      :          -4076.077122841 eV
  | Final zero-broadening corrected energy (caution - metals only) :          -4076.077122841 eV
  | For reference only, the value of 1 Hartree used in FHI-aims is :             27.211384500 eV

  Before relying on these values, please be sure to understand exactly which
  total energy value is referred to by a given number. Different objects may
  all carry the same name 'total energy'. Definitions:

  Total energy of the DFT / Hartree-Fock s.c.f. calculation:
  | Note that this energy does not include ANY quantities calculated after the
  | s.c.f. cycle, in particular not ANY RPA, MP2, etc. many-body perturbation terms.

  Final zero-broadening corrected energy:
  | For metallic systems only, a broadening of the occupation numbers at the Fermi
  | level can be extrapolated back to zero broadening by an electron-gas inspired
  | formula. For all systems that are not real metals, this value can be
  | meaningless and should be avoided.

------------------------------------------------------------------------------
  Methods described in the following list of references were used in this FHI-aims run.
  If you publish the results, please make sure to cite these reference if they apply.
  FHI-aims is an academic code, and for our developers (often, Ph.D. students
  and postdocs), scientific credit in the community is essential.
  Thank you for helping us!

  For any use of FHI-aims, please cite:

    Volker Blum, Ralf Gehrke, Felix Hanke, Paula Havu, Ville Havu,
    Xinguo Ren, Karsten Reuter, and Matthias Scheffler
    'Ab initio molecular simulations with numeric atom-centered orbitals'
    Computer Physics Communications 180, 2175-2196 (2009)
    http://dx.doi.org/10.1016/j.cpc.2009.06.022


  For the real-space grid partitioning and parallelization used in this calculation, please cite:

    Ville Havu, Volker Blum, Paula Havu, and Matthias Scheffler,
    'Efficient O(N) integration for all-electron electronic structure calculation'
    'using numerically tabulated basis functions'
    Journal of Computational Physics 228, 8367-8379 (2009).
    http://dx.doi.org/10.1016/j.jcp.2009.08.008

  Of course, there are many other important community references, e.g., those cited in the
  above references. Our list is limited to references that describe implementations in the
  FHI-aims code. The reason is purely practical (length of this list) - please credit others as well.

------------------------------------------------------------
          Leaving FHI-aims.
          Date     :  20190722, Time     :  144411.960

          Computational steps:
          | Number of self-consistency cycles          :           11

          Detailed time accounting                     :  max(cpu_time)    wall_clock(cpu1)
          | Total time                                 :        1.766 s           1.786 s
          | Preparation time                           :        0.142 s           0.153 s
          | Grid partitioning                          :        0.021 s           0.021 s
          | Preloading free-atom quantities on grid    :        0.017 s           0.017 s
          | Free-atom superposition energy             :        0.009 s           0.009 s
          | Total time for integrations                :        0.568 s           0.565 s
          | Total time for solution of K.-S. equations :        0.023 s           0.022 s
          | Total time for density & force components  :        0.436 s           0.430 s
          | Total time for mixing                      :        0.027 s           0.026 s
          | Total time for Hartree multipole update    :        0.051 s           0.045 s
          | Total time for Hartree multipole sum       :        0.387 s           0.385 s
          | Total time for total energy evaluation     :        0.007 s           0.013 s

          Have a nice day.
------------------------------------------------------------
