  MPI-parallelism will be employed.
------------------------------------------------------------
          Invoking FHI-aims ...
          Version 160328_3
          Compiled on 2019/06/10 at 14:55:49 on host taito-login3.csc.fi.

          When using FHI-aims, please cite the following reference:

          Volker Blum, Ralf Gehrke, Felix Hanke, Paula Havu,
          Ville Havu, Xinguo Ren, Karsten Reuter, and Matthias Scheffler,
          'Ab Initio Molecular Simulations with Numeric Atom-Centered Orbitals',
          Computer Physics Communications 180, 2175-2196 (2009)

          For any questions about FHI-aims, please visit the aimsclub website
          with its forums and wiki. Contributions to both the forums and the
          wiki are warmly encouraged - they are for you, and everyone is welcome there.

------------------------------------------------------------

  Date     :  20190722, Time     :  140701.308
  Time zero on CPU 1             :   0.689890000000000E-01  s.
  Internal wall clock time zero  :           333036421.308  s.

  Using        4 parallel tasks.
  Task        0 on host c617 reporting.
  Task        1 on host c617 reporting.
  Task        2 on host c617 reporting.
  Task        3 on host c617 reporting.

  Performing system and environment tests:
  | Environment variable OMP_NUM_THREADS correctly set to 1.
  | Maximum stacksize for task 0: unlimited
  | Maximum stacksize for task 1: unlimited
  | Maximum stacksize for task 2: unlimited
  | Maximum stacksize for task 3: unlimited
  | Current stacksize for task 0: 1024 [Mb]
  | Current stacksize for task 1: 1024 [Mb]
  | Current stacksize for task 2: 1024 [Mb]
  | Current stacksize for task 3: 1024 [Mb]
  | Checking for scalapack...
  | No scalapack compiled in.

  Obtaining array dimensions for all initial allocations:
  
  -----------------------------------------------------------------------
  Parsing control.in (first pass over file, find array dimensions only).
  The contents of control.in will be repeated verbatim below
  unless switched off by setting 'verbatim_writeout .false.' .
  in the first line of control.in .
  -----------------------------------------------------------------------
  
    #  Physical model settings
    #
  
    xc                            pbe
    charge                        0.0
    relativistic                  none
  #  default_initial_moment        0.0
    spin                          none
  #  vdw_correction_hirshfeld
  
    #  SCF convergence settings
    #
  
    sc_accuracy_rho               1E-4
    sc_accuracy_eev               1E-2
    sc_accuracy_etot              1E-8
    sc_iter_limit                 100
  
    #  Occupation settings
    #
  
    restart                       restart
  #  force_occupation_projector      21 1 1.0 20 21 # ion 0
  #  force_occupation_projector      20 1 1.0 20 21 # ion 1
  #  force_occupation_projector      19 1 1.0 18 19 # ion 2
  #  force_occupation_projector      18 1 1.0 18 19 # ion 3
  #  force_occupation_projector      17 1 1.0 17 17 # ion 4
  
    #  Relaxation
    #
  
    relax_geometry                bfgs    1.e-4
  
  
  ################################################################################
  #
  #  FHI-aims code project
  #  VB, Fritz-Haber Institut, 2007
  #
  #  Suggested "safe" defaults for O atom (to be pasted into control.in file)
  #
  ################################################################################
    species        O
  #     global species definitions
      nucleus             8
      mass                15.9994
  #
      l_hartree           8
  #
      cut_pot             4.0  2.0  1.0
      basis_dep_cutoff    0.d0
  #
      radial_base         36 7.0
      radial_multiplier   2
       angular_grids specified
        division   0.4087  110
        division   0.5181  194
        division   0.6184  302
        division   0.7315  434
        division   0.7934  590
  #      division   0.9656  770
  #      division   1.4041  974
  #      outer_grid 974
        outer_grid 590
  ################################################################################
  #
  #  Definition of "minimal" basis
  #
  ################################################################################
  #     valence basis states
      valence      2  s   2.
      valence      2  p   4.
  #     ion occupancy
      ion_occ      2  s   1.
      ion_occ      2  p   3.
  ################################################################################
  #
  #  Suggested additional basis functions. For production calculations,
  #  uncomment them one after another (the most important basis functions are
  #  listed first).
  #
  #  Constructed for dimers: 1.0 A, 1.208 A, 1.5 A, 2.0 A, 3.0 A
  #
  ################################################################################
  #  "First tier" - improvements: -699.05 meV to -159.38 meV
       hydro 2 p 1.8
       hydro 3 d 7.6
       hydro 3 s 6.4
  #  "Second tier" - improvements: -49.91 meV to -5.39 meV
       hydro 4 f 11.6
       hydro 3 p 6.2
       hydro 3 d 5.6
       hydro 5 g 17.6
       hydro 1 s 0.75
  #  "Third tier" - improvements: -2.83 meV to -0.50 meV
  #     ionic 2 p auto
  #     hydro 4 f 10.8
  #     hydro 4 d 4.7
  #     hydro 2 s 6.8
  #  "Fourth tier" - improvements: -0.40 meV to -0.12 meV
  #     hydro 3 p 5
  #     hydro 3 s 3.3
  #     hydro 5 g 15.6
  #     hydro 4 f 17.6
  #     hydro 4 d 14
  # Further basis functions - -0.08 meV and below
  #     hydro 3 s 2.1
  #     hydro 4 d 11.6
  #     hydro 3 p 16
  #     hydro 2 s 17.2
  
  -----------------------------------------------------------------------
  Completed first pass over input file control.in .
  -----------------------------------------------------------------------
  
  
  -----------------------------------------------------------------------
  Parsing geometry.in (first pass over file, find array dimensions only).
  The contents of geometry.in will be repeated verbatim below
  unless switched off by setting 'verbatim_writeout .false.' .
  in the first line of geometry.in .
  -----------------------------------------------------------------------
  
  atom 0.0 0.0 0.0 O
  atom 0.0 0.0 1.2075 O
  
  -----------------------------------------------------------------------
  Completed first pass over input file geometry.in .
  -----------------------------------------------------------------------
  

  Basic array size parameters:
  | Number of species                 :        1
  | Number of atoms                   :        2
  | Max. basis fn. angular momentum   :        4
  | Max. atomic/ionic basis occupied n:        2
  | Max. number of basis fn. types    :        2
  | Max. radial fns per species/type  :        8
  | Max. logarithmic grid size        :     1301
  | Max. radial integration grid size :       73
  | Max. angular integration grid size:      590
  | Max. angular grid division number :        8
  | Radial grid for Hartree potential :     1301
  | Number of spin channels           :        1

------------------------------------------------------------
          Reading file control.in.
------------------------------------------------------------
  XC: Using PBE gradient-corrected functionals.
  Charge =   0.000000E+00: Neutral system requested explicitly.
  Non-relativistic treatment of kinetic energy.
  Spin treatment: No spin polarisation.
  Convergence accuracy of self-consistent charge density:  0.1000E-03
  Convergence accuracy of sum of eigenvalues:  0.1000E-01
  Convergence accuracy of total energy:  0.1000E-07
  Maximum number of s.-c. iterations  :   100
  Restart file specified as : restart
  | This file does not exist, will create it after the first complete scf cycle.
  Geometry relaxation: Modified BFGS - TRM (trust radius method, i.e., trusted quadratic extrapolation).
  Convergence accuracy for geometry relaxation: Maximum force <   0.100000E-03 eV/A.
 
  Reading configuration options for species O                   .
  | Found nuclear charge :   8.0000
  | Found atomic mass :    15.9994000000000      amu
  | Found l_max for Hartree potential  :   8
  | Found cutoff potl. onset [A], width [A], scale factor :    4.00000    2.00000    1.00000
  | Threshold for basis-dependent cutoff potential is   0.000000E+00
  | Found data for basic radial integration grid :    36 points, outermost radius =    7.000 A
  | Found multiplier for basic radial grid :   2
  | Found angular grid specification: user-specified.
  | Specified grid contains     6 separate shells.
  | Check grid settings after all constraints further below.
  | Found free-atom valence shell :  2 s   2.000
  | Found free-atom valence shell :  2 p   4.000
  | No ionic wave fns used. Skipping ion_occ.
  | No ionic wave fns used. Skipping ion_occ.
  | Found hydrogenic basis function :  2 p   1.800
  | Found hydrogenic basis function :  3 d   7.600
  | Found hydrogenic basis function :  3 s   6.400
  | Found hydrogenic basis function :  4 f  11.600
  | Found hydrogenic basis function :  3 p   6.200
  | Found hydrogenic basis function :  3 d   5.600
  | Found hydrogenic basis function :  5 g  17.600
  | Found hydrogenic basis function :  1 s   0.750
  Species O                   : Missing cutoff potential type.
  Defaulting to exp(1/x)/(1-x)^2 type cutoff potential.
  Species O : No 'logarithmic' tag. Using default grid for free atom:
  | Default logarithmic grid data [bohr] : 0.1000E-03 0.1000E+03 0.1012E+01
  Species O : On-site basis accuracy parameter (for Gram-Schmidt orthonormalisation) not specified.
  Using default value basis_acc =  0.1000000E-03.
  Species O                   : Using default innermost maximum threshold i_radial=  2 for radial functions.
  Species O                   : Default cutoff onset for free atom density etc. : 0.40000000E+01 AA.
  Species O                   : Basic radial grid will be enhanced according to radial_multiplier =   2, to contain    73 grid points.
 
  Finished reading input file 'control.in'. Consistency checks are next.
 
  Target number of points in a grid batch is not set. Defaulting to  100
  Method for grid partitioning is not set. Defaulting to parallel hash+maxmin partitioning.
  Batch size limit is not set. Defaulting to    200
  By default, will store active basis functions for each batch.
  If in need of memory, prune_basis_once .false. can be used to disable this option.
  communication_type for Hartree potential was not specified.
  Defaulting to calc_hartree .
  Defaulting to Pulay charge density mixer.
  Pulay mixer: Number of relevant iterations not set.
  Defaulting to    8 iterations.
  Pulay mixer: Number of initial linear mixing iterations not set.
  Defaulting to    0 iterations.
  Work space size for distributed Hartree potential not set.
  Defaulting to   0.200000E+03 MB.
  Mixing parameter for charge density mixing has not been set.
  Using default: charge_mix_param =     0.2000.
  Algorithm-dependent basis array size parameters:
  | n_max_pulay                         :        8
  No maximum number of relaxation steps, defaulting to     1000
  Default initial Hessian is Lindh matrix (thres = 15.00) plus  0.200000E+01 eV/A^2 times unity.
  No maximum energy tolerance for TRM/BFGS moves, defaulting to   0.200000E-03
  No harmonic length scale. Defaulting to   0.250000E-01 A.
  No trust radius initializer. Defaulting to   0.200000E+00 A.
  Force calculation: scf convergence accuracy of forces not set.
  Required force accuracy for relaxation overrides required scf force convergence accuracy.
  Defaulting to  0.2000E-04 eV/A.
  Handling of forces: Unphysical translation and rotation will be removed from forces.
  No accuracy limit for integral partition fn. given. Defaulting to  0.1000E-14.
  No threshold value for u(r) in integrations given. Defaulting to  0.1000E-05.
  No occupation type (smearing scheme) given. Defaulting to Gaussian broadening, width =  0.1000E-01 eV.
  No accuracy for occupation numbers given. Defaulting to  0.1000E-07.
  No threshold value for occupation numbers given. Defaulting to  0.0000E+00.
  No accuracy for fermi level given. Defaulting to  0.1000E-19.
  Maximum # of iterations to find E_F not set. Defaulting to  200.
  Preferred method for the eigenvalue solver ('KS_method') not specified in 'control.in'.
  Calling blacs routine to test compilation state
  The best choice would be 'elpa', but your version of FHI-aims is compiled without scalapack support.
  Defaulting to 'lapack_fast' instead (serial solution, time will not improve with more CPUs).
  Will not use alltoall communication since running on < 1024 CPUs.
  Threshold for basis singularities not set.
  Default threshold for basis singularities:  0.1000E-04
  partition_type (choice of integration weights) for integrals was not specified.
  | Using a version of the partition function of Stratmann and coworkers ('stratmann_smoother').
  | At each grid point, the set of atoms used to build the partition table is smoothly restricted to
  | only those atoms whose free-atom density would be non-zero at that grid point.
  Partitioning for Hartree potential was not defined. Using partition_type for integrals.
  | Adjusted default value of keyword multip_moments_threshold to:       0.10000000E-11
  | This value may affect high angular momentum components of the Hartree potential in periodic systems.
  No q(lm)/r^(l+1) cutoff set for long-range Hartree potential.
  | Using default value of  0.100000E-09 .
  | Verify using the multipole_threshold keyword.
  Defaulting to new monopole extrapolation.
  Density update method: automatic selection selected.
  Geometry relaxation: A file "geometry.in.next_step" is written out by default after each step.
  | This file contains the geometry of the current relaxation step as well as
  | the current Hessian matrix needed to restart the relaxation algorithm.
  | If you do not want part or all of this information, use the keywords
  | "write_restart_geometry" or "hessian_to_restart_geometry" to switch the output off.
------------------------------------------------------------


------------------------------------------------------------
          Reading geometry description geometry.in.
------------------------------------------------------------
  Input structure read successfully.
  The structure contains        2 atoms,  and a total of         16.000 electrons.

  Input geometry:
  | No unit cell requested.
  | Atomic structure:
  |       Atom                x [A]            y [A]            z [A]
  |    1: Species O              0.000000         0.000000         0.000000
  |    2: Species O              0.000000         0.000000         1.207500
  |

  | The smallest distance between any two atoms is         1.20750000 AA.
  |
  | The first atom of this pair is atom number                      1 .
  | The second atom of this pair is atom number                     2 .

  Number of empty states per atom not set in control.in - providing a guess from actual geometry.
  | Total number of empty states used during s.c.f. cycle:        6
  If you use a very high smearing, use empty_states (per atom!) in control.in to increase this value.

  Structure-dependent array size parameters: 
  | Maximum number of distinct radial functions  :       11
  | Maximum number of basis functions            :       78
  | Number of Kohn-Sham states (occupied + empty):       14
------------------------------------------------------------

------------------------------------------------------------
          Preparing all fixed parts of the calculation.
------------------------------------------------------------
  Determining machine precision:
    2.225073858507201E-308
  Setting up grids for atomic and cluster calculations.

  Creating wave function, potential, and density for free atoms.

  Species: O

  List of occupied orbitals and eigenvalues:
    n    l              occ      energy [Ha]    energy [eV]
    1    0           2.0000       -18.898576      -514.2564
    2    0           2.0000        -0.878795       -23.9132
    2    1           4.0000        -0.332075        -9.0362

  Creating fixed part of basis set: Ionic, confined, hydrogenic.
 
  O                    hydrogenic:
 
  List of hydrogenic basis orbitals: 
    n    l      effective z      eigenvalue [eV]  inner max. [A]     outer max. [A]     outer radius [A]   
    2    1         1.800000       -11.0118           1.178562           1.178562           5.432602
    3    2         7.600000       -87.3183           0.624125           0.624125           4.634338
    3    0         6.400000       -61.9210           0.061167           1.081902           5.110480
    4    3        11.600000      -114.4239           0.731631           0.731631           4.522403
    3    1         6.200000       -58.1114           0.255680           1.030270           5.110480
    3    2         5.600000       -47.4083           0.847233           0.847233           5.173339
    5    4        17.600000      -168.5800           0.749740           0.749740           4.051222
    1    0         0.750000        -7.6499           0.705284           0.705284           5.366593
 

  Adding cutoff potential to free-atom effective potential.
  Creating atomic-like basis functions for current effective potential.

  Species O                   :

  List of atomic basis orbitals and eigenvalues:
    n    l      energy [Ha]    energy [eV]    outer radius [A]
    1    0       -18.898576      -514.2564       1.415765
    2    0        -0.878795       -23.9132       5.048385
    2    1        -0.332075        -9.0362       5.301386

  Assembling full basis from fixed parts.
  | Species O :   atomic orbital   1 s accepted.
  | Species O :   atomic orbital   2 s accepted.
  | Species O :    hydro orbital   3 s accepted.
  | Species O :    hydro orbital   1 s accepted.
  | Species O :   atomic orbital   2 p accepted.
  | Species O :    hydro orbital   2 p accepted.
  | Species O :    hydro orbital   3 p accepted.
  | Species O :    hydro orbital   3 d accepted.
  | Species O :    hydro orbital   3 d accepted.
  | Species O :    hydro orbital   4 f accepted.
  | Species O :    hydro orbital   5 g accepted.
 
  Basis size parameters after reduction:
  | Total number of radial functions:       11
  | Total number of basis functions :       78
 
  Testing on-site integration grid accuracy.
  |  Species  Function  <phi|h_atom|phi> (log., in eV)  <phi|h_atom|phi> (rad., in eV)
           1        1               -514.2564144315               -514.2564099626
           1        2                -23.9132357102                -23.9132356433
           1        3                 17.5398579759                 17.5398338425
           1        4                 14.5207278950                 14.5207740449
           1        5                 -9.0362392718                 -9.0362394845
           1        6                  7.9056275927                  7.9056237490
           1        7                 33.4201658992                 33.4201612015
           1        8                 45.8231952720                 45.8231953152
           1        9                 52.1937595491                 52.1937593440
           1       10                 85.4062894308                 85.4062894578
           1       11                142.0975701139                142.0975701391

  Preparing densities etc. for the partition functions (integrals / Hartree potential).

  Preparations completed.
  max(cpu_time)          :      0.146 s.
  Wall clock time (cpu1) :      0.155 s.
------------------------------------------------------------

------------------------------------------------------------
          Begin self-consistency loop: Initialization.

          Date     :  20190722, Time     :  140701.478
------------------------------------------------------------

  Initializing index lists of integration centers etc. from given atomic structure:
  | Number of centers in hartree potential         :         2
  | Number of centers in hartree multipole         :         2
  | Number of centers in electron density summation:         2
  | Number of centers in basis integrals           :         2
  | Number of centers in integrals                 :         2
  | Number of centers in hamiltonian               :         2
  Initializing relaxation algorithms.
  Partitioning the integration grid into batches with parallel hashing+maxmin method.
  | Number of batches:      742
  | Maximal batch size:     112
  | Minimal batch size:      49
  | Average batch size:      71.779
  | Standard deviation of batch sizes:      21.702

  Integration load balanced across     4 MPI tasks.
  Work distribution over tasks is as follows:
  Task     0 has      13280 integration points.
  Task     1 has      13300 integration points.
  Task     2 has      13300 integration points.
  Task     3 has      13380 integration points.
  Initializing partition tables, free-atom densities, potentials, etc. across the integration grid (initialize_grid_storage).
  | initialize_grid_storage: Actual outermost partition radius vs. multipole_radius_free
  | (-- VB: in principle, multipole_radius_free should be larger, hence this output)
  | Species        1: Confinement radius =              6.000000000000000 AA, multipole_radius_free =              6.064445521808699 AA.
  | Species        1: outer_partition_radius set to              6.064445521808699 AA .
  | Original list of interatomic distances with           2 x          2 entries is created.
  | Net number of integration points:    53260
  | of which are non-zero points    :    50204
  Obtaining max. number of non-zero basis functions in each batch (get_n_compute_maxes).
  | Maximal number of non-zero basis functions:       78 in task     0
  | Maximal number of non-zero basis functions:       78 in task     1
  | Maximal number of non-zero basis functions:       78 in task     2
  | Maximal number of non-zero basis functions:       78 in task     3
  Selecting the method for density update.
  Loop over occupied states selected for charge density update.
  Integrating Hamiltonian matrix: batch-based integration.
  Time summed over all CPUs for integration: real work        0.174 s, elapsed        0.178 s
  Integrating overlap matrix.
  Time summed over all CPUs for integration: real work        0.062 s, elapsed        0.063 s

  Updating Kohn-Sham eigenvalues, eigenvectors, occupation numbers, and Fermi level.
  Solving generalized eigenproblem
  Updating Kohn-Sham eigenvalues and eigenfunctions.
  Transforming overlap matrix and checking for singularities.
  Overlap matrix is nonsingular:
  | Lowest eigenvalue:  0.279359E-03
  Solving real generalised eigenvalue problem by standard LAPACK (fast)
  Determining occupation numbers for Kohn-Sham eigenstates.
  | Chemical potential (Fermi level) in eV                 : -.65417227E+01
  | Error in electron count due to remaining E_F inaccuracy: -.85265128E-13
  | Maximum occupation number of highest empty state:  0.00E+00

  Writing Kohn-Sham eigenvalues.

  State    Occupation    Eigenvalue [Ha]    Eigenvalue [eV]
      1       2.00000         -18.935394         -515.25830
      2       2.00000         -18.935317         -515.25620
      3       2.00000          -1.193083          -32.46543
      4       2.00000          -0.762148          -20.73910
      5       2.00000          -0.519873          -14.14647
      6       2.00000          -0.486491          -13.23810
      7       2.00000          -0.486491          -13.23810
      8       1.00000          -0.240404           -6.54172
      9       1.00000          -0.240404           -6.54172
     10       0.00000           0.075872            2.06457
     11       0.00000           0.091153            2.48040
     12       0.00000           0.131919            3.58970
     13       0.00000           0.131919            3.58970
     14       0.00000           0.204227            5.55730

  Highest occupied state (VBM) at     -6.54172270 eV
  | Occupation number:      1.00000000

  Lowest unoccupied state (CBM) at    -6.54172270 eV
  | Occupation number:      1.00000000

  Overall HOMO-LUMO gap:      0.00000000 eV.
  Calculating total energy contributions from superposition of free atom densities.

  Total energy components:
  | Sum of eigenvalues            :         -83.11840390 Ha       -2261.76684768 eV
  | XC energy correction          :         -16.76402082 Ha        -456.17221629 eV
  | XC potential correction       :          21.55039927 Ha         586.41620056 eV
  | Free-atom electrostatic energy:         -71.89305466 Ha       -1956.30955312 eV
  | Hartree energy correction     :           0.00000000 Ha           0.00000000 eV
  | Entropy correction            :          -0.00020734 Ha          -0.00564190 eV
  | ---------------------------
  | Total energy                  :        -150.22508011 Ha       -4087.83241653 eV
  | Total energy, T -> 0          :        -150.22528745 Ha       -4087.83805842 eV  <-- do not rely on this value for anything but (periodic) metals
  | Electronic free energy        :        -150.22549479 Ha       -4087.84370032 eV

  Derived energy quantities:
  | Kinetic energy                :         149.73548044 Ha        4074.50973157 eV
  | Electrostatic energy          :        -283.19653974 Ha       -7706.16993181 eV
  | Energy correction for multipole
  | error in Hartree potential    :           0.00000000 Ha           0.00000000 eV
  | Sum of eigenvalues per atom                           :       -1130.88342384 eV
  | Total energy (T->0) per atom                          :       -2043.91902921 eV  <-- do not rely on this value for anything but (periodic) metals
  | Electronic free energy per atom                       :       -2043.92185016 eV
  Initialize hartree_potential_storage
  Max. number of atoms included in rho_multipole:            2

  End scf initialization - timings             :  max(cpu_time)    wall_clock(cpu1)
  | Time for scf. initialization               :        0.144 s           1.528 s
  | Boundary condition initialization          :        0.000 s           0.001 s
  | Relaxation initialization                  :        0.005 s           1.390 s
  | Integration                                :        0.061 s           0.061 s
  | Solution of K.-S. eqns.                    :        0.010 s           0.011 s
  | Grid partitioning                          :        0.027 s           0.028 s
  | Preloading free-atom quantities on grid    :        0.017 s           0.017 s
  | Free-atom superposition energy             :        0.010 s           0.009 s
  | Total energy evaluation                    :        0.001 s           0.001 s
------------------------------------------------------------

------------------------------------------------------------
          Begin self-consistency iteration #    1

  Date     :  20190722, Time     :  140703.007
------------------------------------------------------------
  Evaluating new KS density.
  Integration grid: deviation in total charge (<rho> - N_e) =   4.263256E-14
  Pulay mixing of updated and previous charge densities.

  Evaluating partitioned Hartree potential by multipole expansion.
  | Analytical far-field extrapolation by fixed multipoles:
  | Hartree multipole sum: apparent total charge =   0.114217E-07
  Summing up the Hartree potential.
  Time summed over all CPUs for potential: real work        0.097 s, elapsed        0.098 s
  | RMS charge density error from multipole expansion :   0.939497E-04

  Integrating Hamiltonian matrix: batch-based integration.
  Time summed over all CPUs for integration: real work        0.165 s, elapsed        0.167 s

  Updating Kohn-Sham eigenvalues, eigenvectors, occupation numbers, and Fermi level.
  Solving generalized eigenproblem
  Updating Kohn-Sham eigenvalues and eigenfunctions.
  Solving real generalised eigenvalue problem by standard LAPACK (fast)
  Determining occupation numbers for Kohn-Sham eigenstates.
  | Chemical potential (Fermi level) in eV                 : -.63076681E+01
  | Error in electron count due to remaining E_F inaccuracy: -.85265128E-13
  | Maximum occupation number of highest empty state:  0.00E+00

  Writing Kohn-Sham eigenvalues.

  State    Occupation    Eigenvalue [Ha]    Eigenvalue [eV]
      1       2.00000         -18.919271         -514.81955
      2       2.00000         -18.919193         -514.81744
      3       2.00000          -1.192146          -32.43995
      4       2.00000          -0.750291          -20.41645
      5       2.00000          -0.508589          -13.83941
      6       2.00000          -0.480770          -13.08242
      7       2.00000          -0.480770          -13.08242
      8       1.00000          -0.231803           -6.30767
      9       1.00000          -0.231803           -6.30767
     10       0.00000           0.078720            2.14209
     11       0.00000           0.093397            2.54146
     12       0.00000           0.133314            3.62766
     13       0.00000           0.133314            3.62766
     14       0.00000           0.205935            5.60379

  Highest occupied state (VBM) at     -6.30766813 eV
  | Occupation number:      1.00000000

  Lowest unoccupied state (CBM) at    -6.30766813 eV
  | Occupation number:      1.00000000

  Overall HOMO-LUMO gap:      0.00000000 eV.

  Total energy components:
  | Sum of eigenvalues            :         -82.96566519 Ha       -2257.61061591 eV
  | XC energy correction          :         -16.78814521 Ha        -456.82867427 eV
  | XC potential correction       :          21.58181432 Ha         587.27104758 eV
  | Free-atom electrostatic energy:         -71.89305466 Ha       -1956.30955312 eV
  | Hartree energy correction     :          -0.15527171 Ha          -4.22515812 eV
  | Entropy correction            :          -0.00020734 Ha          -0.00564190 eV
  | ---------------------------
  | Total energy                  :        -150.22032245 Ha       -4087.70295384 eV
  | Total energy, T -> 0          :        -150.22052978 Ha       -4087.70859574 eV  <-- do not rely on this value for anything but (periodic) metals
  | Electronic free energy        :        -150.22073712 Ha       -4087.71423763 eV

  Derived energy quantities:
  | Kinetic energy                :         149.85104703 Ha        4077.65445837 eV
  | Electrostatic energy          :        -283.28322427 Ha       -7708.52873795 eV
  | Energy correction for multipole
  | error in Hartree potential    :          -0.00009244 Ha          -0.00251543 eV
  | Sum of eigenvalues per atom                           :       -1128.80530796 eV
  | Total energy (T->0) per atom                          :       -2043.85429787 eV  <-- do not rely on this value for anything but (periodic) metals
  | Electronic free energy per atom                       :       -2043.85711882 eV

  Self-consistency convergence accuracy:
  | Change of charge density      :  0.1701E+00
  | Change of sum of eigenvalues  :  0.4156E+01 eV
  | Change of total energy        :  0.1295E+00 eV

  End self-consistency iteration #     1       :  max(cpu_time)    wall_clock(cpu1)
  | Time for this iteration                    :        0.107 s           0.107 s
  | Charge density update                      :        0.032 s           0.031 s
  | Density mixing                             :        0.001 s           0.001 s
  | Hartree multipole update                   :        0.005 s           0.004 s
  | Hartree multipole summation                :        0.026 s           0.026 s
  | Integration                                :        0.042 s           0.042 s
  | Solution of K.-S. eqns.                    :        0.001 s           0.001 s
  | Total energy evaluation                    :        0.001 s           0.001 s
------------------------------------------------------------

------------------------------------------------------------
          Begin self-consistency iteration #    2

  Date     :  20190722, Time     :  140703.116
------------------------------------------------------------
  Evaluating new KS density.
  Integration grid: deviation in total charge (<rho> - N_e) =   9.947598E-14
  Pulay mixing of updated and previous charge densities.

  Evaluating partitioned Hartree potential by multipole expansion.
  | Analytical far-field extrapolation by fixed multipoles:
  | Hartree multipole sum: apparent total charge =   0.552399E-07
  Summing up the Hartree potential.
  Time summed over all CPUs for potential: real work        0.095 s, elapsed        0.096 s
  | RMS charge density error from multipole expansion :   0.369943E-03

  Integrating Hamiltonian matrix: batch-based integration.
  Time summed over all CPUs for integration: real work        0.165 s, elapsed        0.167 s

  Updating Kohn-Sham eigenvalues, eigenvectors, occupation numbers, and Fermi level.
  Solving generalized eigenproblem
  Updating Kohn-Sham eigenvalues and eigenfunctions.
  Solving real generalised eigenvalue problem by standard LAPACK (fast)
  Determining occupation numbers for Kohn-Sham eigenstates.
  | Chemical potential (Fermi level) in eV                 : -.57743387E+01
  | Error in electron count due to remaining E_F inaccuracy: 0.00000000E+00
  | Maximum occupation number of highest empty state:  0.00E+00

  Highest occupied state (VBM) at     -5.77433873 eV
  | Occupation number:      1.00000000

  Lowest unoccupied state (CBM) at    -5.77433873 eV
  | Occupation number:      1.00000000

  Overall HOMO-LUMO gap:      0.00000000 eV.

  Total energy components:
  | Sum of eigenvalues            :         -82.63213644 Ha       -2248.53483686 eV
  | XC energy correction          :         -16.84497550 Ha        -458.37510517 eV
  | XC potential correction       :          21.65571798 Ha         589.28206863 eV
  | Free-atom electrostatic energy:         -71.89305466 Ha       -1956.30955312 eV
  | Hartree energy correction     :          -0.50188843 Ha         -13.65707906 eV
  | Entropy correction            :          -0.00020734 Ha          -0.00564190 eV
  | ---------------------------
  | Total energy                  :        -150.21633705 Ha       -4087.59450558 eV
  | Total energy, T -> 0          :        -150.21654438 Ha       -4087.60014747 eV  <-- do not rely on this value for anything but (periodic) metals
  | Electronic free energy        :        -150.21675172 Ha       -4087.60578937 eV

  Derived energy quantities:
  | Kinetic energy                :         150.04791227 Ha        4083.01143411 eV
  | Electrostatic energy          :        -283.41927382 Ha       -7712.23083451 eV
  | Energy correction for multipole
  | error in Hartree potential    :          -0.00033670 Ha          -0.00916195 eV
  | Sum of eigenvalues per atom                           :       -1124.26741843 eV
  | Total energy (T->0) per atom                          :       -2043.80007374 eV  <-- do not rely on this value for anything but (periodic) metals
  | Electronic free energy per atom                       :       -2043.80289468 eV

  Self-consistency convergence accuracy:
  | Change of charge density      :  0.1250E+00
  | Change of sum of eigenvalues  :  0.9076E+01 eV
  | Change of total energy        :  0.1084E+00 eV

  End self-consistency iteration #     2       :  max(cpu_time)    wall_clock(cpu1)
  | Time for this iteration                    :        0.105 s           0.104 s
  | Charge density update                      :        0.030 s           0.029 s
  | Density mixing                             :        0.002 s           0.002 s
  | Hartree multipole update                   :        0.004 s           0.004 s
  | Hartree multipole summation                :        0.025 s           0.025 s
  | Integration                                :        0.042 s           0.042 s
  | Solution of K.-S. eqns.                    :        0.001 s           0.001 s
  | Total energy evaluation                    :        0.000 s           0.000 s
------------------------------------------------------------

------------------------------------------------------------
          Begin self-consistency iteration #    3

  Date     :  20190722, Time     :  140703.222
------------------------------------------------------------
  Evaluating new KS density.
  Integration grid: deviation in total charge (<rho> - N_e) =  -8.171241E-14
  Pulay mixing of updated and previous charge densities.

  Evaluating partitioned Hartree potential by multipole expansion.
  | Analytical far-field extrapolation by fixed multipoles:
  | Hartree multipole sum: apparent total charge =   0.947250E-07
  Summing up the Hartree potential.
  Time summed over all CPUs for potential: real work        0.102 s, elapsed        0.106 s
  | RMS charge density error from multipole expansion :   0.497578E-03

  Integrating Hamiltonian matrix: batch-based integration.
  Time summed over all CPUs for integration: real work        0.169 s, elapsed        0.172 s

  Updating Kohn-Sham eigenvalues, eigenvectors, occupation numbers, and Fermi level.
  Solving generalized eigenproblem
  Updating Kohn-Sham eigenvalues and eigenfunctions.
  Solving real generalised eigenvalue problem by standard LAPACK (fast)
  Determining occupation numbers for Kohn-Sham eigenstates.
  | Chemical potential (Fermi level) in eV                 : -.58908526E+01
  | Error in electron count due to remaining E_F inaccuracy: 0.00000000E+00
  | Maximum occupation number of highest empty state:  0.00E+00

  Highest occupied state (VBM) at     -5.89085259 eV
  | Occupation number:      1.00000012

  Lowest unoccupied state (CBM) at    -5.89085258 eV
  | Occupation number:      0.99999988

  Overall HOMO-LUMO gap:      0.00000000 eV.

  Total energy components:
  | Sum of eigenvalues            :         -82.74616134 Ha       -2251.63761208 eV
  | XC energy correction          :         -16.82985029 Ha        -457.96352721 eV
  | XC potential correction       :          21.63588484 Ha         588.74238129 eV
  | Free-atom electrostatic energy:         -71.89305466 Ha       -1956.30955312 eV
  | Hartree energy correction     :          -0.38308083 Ha         -10.42415965 eV
  | Entropy correction            :          -0.00020734 Ha          -0.00564190 eV
  | ---------------------------
  | Total energy                  :        -150.21626227 Ha       -4087.59247077 eV
  | Total energy, T -> 0          :        -150.21646961 Ha       -4087.59811267 eV  <-- do not rely on this value for anything but (periodic) metals
  | Electronic free energy        :        -150.21667694 Ha       -4087.60375456 eV

  Derived energy quantities:
  | Kinetic energy                :         149.84070118 Ha        4077.37293348 eV
  | Electrostatic energy          :        -283.22711316 Ha       -7707.00187703 eV
  | Energy correction for multipole
  | error in Hartree potential    :          -0.00038337 Ha          -0.01043199 eV
  | Sum of eigenvalues per atom                           :       -1125.81880604 eV
  | Total energy (T->0) per atom                          :       -2043.79905633 eV  <-- do not rely on this value for anything but (periodic) metals
  | Electronic free energy per atom                       :       -2043.80187728 eV

  Self-consistency convergence accuracy:
  | Change of charge density      :  0.2889E-01
  | Change of sum of eigenvalues  : -0.3103E+01 eV
  | Change of total energy        :  0.2035E-02 eV

  End self-consistency iteration #     3       :  max(cpu_time)    wall_clock(cpu1)
  | Time for this iteration                    :        0.114 s           0.114 s
  | Charge density update                      :        0.030 s           0.029 s
  | Density mixing                             :        0.002 s           0.002 s
  | Hartree multipole update                   :        0.004 s           0.004 s
  | Hartree multipole summation                :        0.028 s           0.029 s
  | Integration                                :        0.044 s           0.044 s
  | Solution of K.-S. eqns.                    :        0.004 s           0.004 s
  | Total energy evaluation                    :        0.001 s           0.001 s
------------------------------------------------------------

------------------------------------------------------------
          Begin self-consistency iteration #    4

  Date     :  20190722, Time     :  140703.338
------------------------------------------------------------
  Evaluating new KS density.
  Integration grid: deviation in total charge (<rho> - N_e) =   1.527667E-13
  Pulay mixing of updated and previous charge densities.

  Evaluating partitioned Hartree potential by multipole expansion.
  | Analytical far-field extrapolation by fixed multipoles:
  | Hartree multipole sum: apparent total charge =   0.101908E-06
  Summing up the Hartree potential.
  Time summed over all CPUs for potential: real work        0.096 s, elapsed        0.097 s
  | RMS charge density error from multipole expansion :   0.515593E-03

  Integrating Hamiltonian matrix: batch-based integration.
  Time summed over all CPUs for integration: real work        0.166 s, elapsed        0.168 s

  Updating Kohn-Sham eigenvalues, eigenvectors, occupation numbers, and Fermi level.
  Solving generalized eigenproblem
  Updating Kohn-Sham eigenvalues and eigenfunctions.
  Solving real generalised eigenvalue problem by standard LAPACK (fast)
  Determining occupation numbers for Kohn-Sham eigenstates.
  | Chemical potential (Fermi level) in eV                 : -.58284352E+01
  | Error in electron count due to remaining E_F inaccuracy: -.85265128E-13
  | Maximum occupation number of highest empty state:  0.00E+00

  Highest occupied state (VBM) at     -5.82843520 eV
  | Occupation number:      1.00000429

  Lowest unoccupied state (CBM) at    -5.82843512 eV
  | Occupation number:      0.99999571

  Overall HOMO-LUMO gap:      0.00000008 eV.

  Total energy components:
  | Sum of eigenvalues            :         -82.70008559 Ha       -2250.38382726 eV
  | XC energy correction          :         -16.83545438 Ha        -458.11602240 eV
  | XC potential correction       :          21.64319068 Ha         588.94118349 eV
  | Free-atom electrostatic energy:         -71.89305466 Ha       -1956.30955312 eV
  | Hartree energy correction     :          -0.43084811 Ha         -11.72397352 eV
  | Entropy correction            :          -0.00020734 Ha          -0.00564190 eV
  | ---------------------------
  | Total energy                  :        -150.21625205 Ha       -4087.59219281 eV
  | Total energy, T -> 0          :        -150.21645939 Ha       -4087.59783470 eV  <-- do not rely on this value for anything but (periodic) metals
  | Electronic free energy        :        -150.21666673 Ha       -4087.60347660 eV

  Derived energy quantities:
  | Kinetic energy                :         149.87464495 Ha        4078.29659059 eV
  | Electrostatic energy          :        -283.25544263 Ha       -7707.77276099 eV
  | Energy correction for multipole
  | error in Hartree potential    :          -0.00040491 Ha          -0.01101817 eV
  | Sum of eigenvalues per atom                           :       -1125.19191363 eV
  | Total energy (T->0) per atom                          :       -2043.79891735 eV  <-- do not rely on this value for anything but (periodic) metals
  | Electronic free energy per atom                       :       -2043.80173830 eV

  Self-consistency convergence accuracy:
  | Change of charge density      :  0.5159E-02
  | Change of sum of eigenvalues  :  0.1254E+01 eV
  | Change of total energy        :  0.2780E-03 eV

  End self-consistency iteration #     4       :  max(cpu_time)    wall_clock(cpu1)
  | Time for this iteration                    :        0.105 s           0.105 s
  | Charge density update                      :        0.030 s           0.030 s
  | Density mixing                             :        0.003 s           0.002 s
  | Hartree multipole update                   :        0.004 s           0.004 s
  | Hartree multipole summation                :        0.025 s           0.025 s
  | Integration                                :        0.043 s           0.042 s
  | Solution of K.-S. eqns.                    :        0.001 s           0.001 s
  | Total energy evaluation                    :        0.000 s           0.001 s
------------------------------------------------------------

------------------------------------------------------------
          Begin self-consistency iteration #    5

  Date     :  20190722, Time     :  140703.444
------------------------------------------------------------
  Evaluating new KS density.
  Integration grid: deviation in total charge (<rho> - N_e) =  -2.362555E-13
  Pulay mixing of updated and previous charge densities.

  Evaluating partitioned Hartree potential by multipole expansion.
  | Analytical far-field extrapolation by fixed multipoles:
  | Hartree multipole sum: apparent total charge =   0.780961E-07
  Summing up the Hartree potential.
  Time summed over all CPUs for potential: real work        0.096 s, elapsed        0.096 s
  | RMS charge density error from multipole expansion :   0.514378E-03

  Integrating Hamiltonian matrix: batch-based integration.
  Time summed over all CPUs for integration: real work        0.166 s, elapsed        0.169 s

  Updating Kohn-Sham eigenvalues, eigenvectors, occupation numbers, and Fermi level.
  Solving generalized eigenproblem
  Updating Kohn-Sham eigenvalues and eigenfunctions.
  Solving real generalised eigenvalue problem by standard LAPACK (fast)
  Determining occupation numbers for Kohn-Sham eigenstates.
  | Chemical potential (Fermi level) in eV                 : -.58469903E+01
  | Error in electron count due to remaining E_F inaccuracy: 0.91528563E-10
  | Maximum occupation number of highest empty state:  0.00E+00

  Highest occupied state (VBM) at     -5.84699069 eV
  | Occupation number:      1.00004483

  Lowest unoccupied state (CBM) at    -5.84698989 eV
  | Occupation number:      0.99995517

  Overall HOMO-LUMO gap:      0.00000079 eV.

  Total energy components:
  | Sum of eigenvalues            :         -82.71351228 Ha       -2250.74918589 eV
  | XC energy correction          :         -16.83343927 Ha        -458.06118851 eV
  | XC potential correction       :          21.64056242 Ha         588.86966491 eV
  | Free-atom electrostatic energy:         -71.89305466 Ha       -1956.30955312 eV
  | Hartree energy correction     :          -0.41680460 Ha         -11.34183031 eV
  | Entropy correction            :          -0.00020734 Ha          -0.00564190 eV
  | ---------------------------
  | Total energy                  :        -150.21624838 Ha       -4087.59209292 eV
  | Total energy, T -> 0          :        -150.21645572 Ha       -4087.59773482 eV  <-- do not rely on this value for anything but (periodic) metals
  | Electronic free energy        :        -150.21666306 Ha       -4087.60337671 eV

  Derived energy quantities:
  | Kinetic energy                :         149.86186662 Ha        4077.94887440 eV
  | Electrostatic energy          :        -283.24467573 Ha       -7707.47977881 eV
  | Energy correction for multipole
  | error in Hartree potential    :          -0.00040108 Ha          -0.01091405 eV
  | Sum of eigenvalues per atom                           :       -1125.37459295 eV
  | Total energy (T->0) per atom                          :       -2043.79886741 eV  <-- do not rely on this value for anything but (periodic) metals
  | Electronic free energy per atom                       :       -2043.80168836 eV

  Self-consistency convergence accuracy:
  | Change of charge density      :  0.2685E-02
  | Change of sum of eigenvalues  : -0.3654E+00 eV
  | Change of total energy        :  0.9989E-04 eV

  End self-consistency iteration #     5       :  max(cpu_time)    wall_clock(cpu1)
  | Time for this iteration                    :        0.108 s           0.109 s
  | Charge density update                      :        0.030 s           0.031 s
  | Density mixing                             :        0.003 s           0.003 s
  | Hartree multipole update                   :        0.004 s           0.004 s
  | Hartree multipole summation                :        0.025 s           0.025 s
  | Integration                                :        0.043 s           0.042 s
  | Solution of K.-S. eqns.                    :        0.002 s           0.003 s
  | Total energy evaluation                    :        0.001 s           0.001 s
------------------------------------------------------------

------------------------------------------------------------
          Begin self-consistency iteration #    6

  Date     :  20190722, Time     :  140703.554
------------------------------------------------------------
  Evaluating new KS density.
  Integration grid: deviation in total charge (<rho> - N_e) =   9.136869E-11
  Pulay mixing of updated and previous charge densities.

  Evaluating partitioned Hartree potential by multipole expansion.
  | Analytical far-field extrapolation by fixed multipoles:
  | Hartree multipole sum: apparent total charge =   0.799868E-07
  Summing up the Hartree potential.
  Time summed over all CPUs for potential: real work        0.096 s, elapsed        0.096 s
  | RMS charge density error from multipole expansion :   0.514628E-03

  Integrating Hamiltonian matrix: batch-based integration.
  Time summed over all CPUs for integration: real work        0.165 s, elapsed        0.167 s

  Updating Kohn-Sham eigenvalues, eigenvectors, occupation numbers, and Fermi level.
  Solving generalized eigenproblem
  Updating Kohn-Sham eigenvalues and eigenfunctions.
  Solving real generalised eigenvalue problem by standard LAPACK (fast)
  Determining occupation numbers for Kohn-Sham eigenstates.
  | Chemical potential (Fermi level) in eV                 : -.58498271E+01
  | Error in electron count due to remaining E_F inaccuracy: -.13550050E-10
  | Maximum occupation number of highest empty state:  0.00E+00

  Highest occupied state (VBM) at     -5.84984907 eV
  | Occupation number:      1.00248147

  Lowest unoccupied state (CBM) at    -5.84980509 eV
  | Occupation number:      0.99751853

  Overall HOMO-LUMO gap:      0.00004398 eV.

  Total energy components:
  | Sum of eigenvalues            :         -82.71500396 Ha       -2250.78977676 eV
  | XC energy correction          :         -16.83333861 Ha        -458.05844930 eV
  | XC potential correction       :          21.64042250 Ha         588.86585747 eV
  | Free-atom electrostatic energy:         -71.89305466 Ha       -1956.30955312 eV
  | Hartree energy correction     :          -0.41527361 Ha         -11.30016988 eV
  | Entropy correction            :          -0.00020733 Ha          -0.00564187 eV
  | ---------------------------
  | Total energy                  :        -150.21624833 Ha       -4087.59209159 eV
  | Total energy, T -> 0          :        -150.21645567 Ha       -4087.59773346 eV  <-- do not rely on this value for anything but (periodic) metals
  | Electronic free energy        :        -150.21666300 Ha       -4087.60337532 eV

  Derived energy quantities:
  | Kinetic energy                :         149.86317985 Ha        4077.98460917 eV
  | Electrostatic energy          :        -283.24608957 Ha       -7707.51825146 eV
  | Energy correction for multipole
  | error in Hartree potential    :          -0.00040174 Ha          -0.01093182 eV
  | Sum of eigenvalues per atom                           :       -1125.39488838 eV
  | Total energy (T->0) per atom                          :       -2043.79886673 eV  <-- do not rely on this value for anything but (periodic) metals
  | Electronic free energy per atom                       :       -2043.80168766 eV

  Self-consistency convergence accuracy:
  | Change of charge density      :  0.3456E-03
  | Change of sum of eigenvalues  : -0.4059E-01 eV
  | Change of total energy        :  0.1335E-05 eV

  End self-consistency iteration #     6       :  max(cpu_time)    wall_clock(cpu1)
  | Time for this iteration                    :        0.105 s           0.104 s
  | Charge density update                      :        0.030 s           0.029 s
  | Density mixing                             :        0.002 s           0.003 s
  | Hartree multipole update                   :        0.005 s           0.003 s
  | Hartree multipole summation                :        0.025 s           0.025 s
  | Integration                                :        0.042 s           0.042 s
  | Solution of K.-S. eqns.                    :        0.001 s           0.001 s
  | Total energy evaluation                    :        0.000 s           0.001 s
------------------------------------------------------------

------------------------------------------------------------
          Begin self-consistency iteration #    7

  Date     :  20190722, Time     :  140703.661
------------------------------------------------------------
  Evaluating new KS density.
  Integration grid: deviation in total charge (<rho> - N_e) =  -1.347011E-11
  Pulay mixing of updated and previous charge densities.

  Evaluating partitioned Hartree potential by multipole expansion.
  | Analytical far-field extrapolation by fixed multipoles:
  | Hartree multipole sum: apparent total charge =   0.800416E-07
  Summing up the Hartree potential.
  Time summed over all CPUs for potential: real work        0.096 s, elapsed        0.096 s
  | RMS charge density error from multipole expansion :   0.514636E-03

  Integrating Hamiltonian matrix: batch-based integration.
  Time summed over all CPUs for integration: real work        0.165 s, elapsed        0.168 s

  Updating Kohn-Sham eigenvalues, eigenvectors, occupation numbers, and Fermi level.
  Solving generalized eigenproblem
  Updating Kohn-Sham eigenvalues and eigenfunctions.
  Solving real generalised eigenvalue problem by standard LAPACK (fast)
  Determining occupation numbers for Kohn-Sham eigenstates.
  | Chemical potential (Fermi level) in eV                 : -.58499087E+01
  | Error in electron count due to remaining E_F inaccuracy: -.29315217E-10
  | Maximum occupation number of highest empty state:  0.00E+00

  Highest occupied state (VBM) at     -5.84990872 eV
  | Occupation number:      1.00000124

  Lowest unoccupied state (CBM) at    -5.84990870 eV
  | Occupation number:      0.99999876

  Overall HOMO-LUMO gap:      0.00000002 eV.

  Total energy components:
  | Sum of eigenvalues            :         -82.71504733 Ha       -2250.79095685 eV
  | XC energy correction          :         -16.83333561 Ha        -458.05836775 eV
  | XC potential correction       :          21.64041835 Ha         588.86574448 eV
  | Free-atom electrostatic energy:         -71.89305466 Ha       -1956.30955312 eV
  | Hartree energy correction     :          -0.41522908 Ha         -11.29895822 eV
  | Entropy correction            :          -0.00020734 Ha          -0.00564190 eV
  | ---------------------------
  | Total energy                  :        -150.21624833 Ha       -4087.59209147 eV
  | Total energy, T -> 0          :        -150.21645567 Ha       -4087.59773336 eV  <-- do not rely on this value for anything but (periodic) metals
  | Electronic free energy        :        -150.21666300 Ha       -4087.60337526 eV

  Derived energy quantities:
  | Kinetic energy                :         149.86321662 Ha        4077.98560977 eV
  | Electrostatic energy          :        -283.24612934 Ha       -7707.51933348 eV
  | Energy correction for multipole
  | error in Hartree potential    :          -0.00040175 Ha          -0.01093230 eV
  | Sum of eigenvalues per atom                           :       -1125.39547843 eV
  | Total energy (T->0) per atom                          :       -2043.79886668 eV  <-- do not rely on this value for anything but (periodic) metals
  | Electronic free energy per atom                       :       -2043.80168763 eV

  Self-consistency convergence accuracy:
  | Change of charge density      :  0.7745E-03
  | Change of sum of eigenvalues  : -0.1180E-02 eV
  | Change of total energy        :  0.1199E-06 eV

  End self-consistency iteration #     7       :  max(cpu_time)    wall_clock(cpu1)
  | Time for this iteration                    :        0.106 s           0.105 s
  | Charge density update                      :        0.031 s           0.030 s
  | Density mixing                             :        0.002 s           0.003 s
  | Hartree multipole update                   :        0.004 s           0.003 s
  | Hartree multipole summation                :        0.025 s           0.025 s
  | Integration                                :        0.042 s           0.042 s
  | Solution of K.-S. eqns.                    :        0.001 s           0.001 s
  | Total energy evaluation                    :        0.000 s           0.000 s
------------------------------------------------------------

------------------------------------------------------------
          Begin self-consistency iteration #    8

  Date     :  20190722, Time     :  140703.767
------------------------------------------------------------
  Evaluating new KS density.
  Integration grid: deviation in total charge (<rho> - N_e) =  -2.922462E-11
  Pulay mixing of updated and previous charge densities.

  Evaluating partitioned Hartree potential by multipole expansion.
  | Analytical far-field extrapolation by fixed multipoles:
  | Hartree multipole sum: apparent total charge =   0.801827E-07
  Summing up the Hartree potential.
  Time summed over all CPUs for potential: real work        0.096 s, elapsed        0.096 s
  | RMS charge density error from multipole expansion :   0.514644E-03

  Integrating Hamiltonian matrix: batch-based integration.
  Time summed over all CPUs for integration: real work        0.166 s, elapsed        0.168 s

  Updating Kohn-Sham eigenvalues, eigenvectors, occupation numbers, and Fermi level.
  Solving generalized eigenproblem
  Updating Kohn-Sham eigenvalues and eigenfunctions.
  Solving real generalised eigenvalue problem by standard LAPACK (fast)
  Determining occupation numbers for Kohn-Sham eigenstates.
  | Chemical potential (Fermi level) in eV                 : -.58500896E+01
  | Error in electron count due to remaining E_F inaccuracy: -.13192469E-09
  | Maximum occupation number of highest empty state:  0.00E+00

  Highest occupied state (VBM) at     -5.85008959 eV
  | Occupation number:      1.00000030

  Lowest unoccupied state (CBM) at    -5.85008959 eV
  | Occupation number:      0.99999970

  Overall HOMO-LUMO gap:      0.00000001 eV.

  Total energy components:
  | Sum of eigenvalues            :         -82.71516722 Ha       -2250.79421920 eV
  | XC energy correction          :         -16.83332312 Ha        -458.05802774 eV
  | XC potential correction       :          21.64040177 Ha         588.86529323 eV
  | Free-atom electrostatic energy:         -71.89305466 Ha       -1956.30955312 eV
  | Hartree energy correction     :          -0.41510511 Ha         -11.29558464 eV
  | Entropy correction            :          -0.00020734 Ha          -0.00564190 eV
  | ---------------------------
  | Total energy                  :        -150.21624833 Ha       -4087.59209146 eV
  | Total energy, T -> 0          :        -150.21645567 Ha       -4087.59773336 eV  <-- do not rely on this value for anything but (periodic) metals
  | Electronic free energy        :        -150.21666300 Ha       -4087.60337525 eV

  Derived energy quantities:
  | Kinetic energy                :         149.86323277 Ha        4077.98604939 eV
  | Electrostatic energy          :        -283.24615799 Ha       -7707.52011311 eV
  | Energy correction for multipole
  | error in Hartree potential    :          -0.00040174 Ha          -0.01093197 eV
  | Sum of eigenvalues per atom                           :       -1125.39710960 eV
  | Total energy (T->0) per atom                          :       -2043.79886668 eV  <-- do not rely on this value for anything but (periodic) metals
  | Electronic free energy per atom                       :       -2043.80168763 eV

  Self-consistency convergence accuracy:
  | Change of charge density      :  0.1280E-04
  | Change of sum of eigenvalues  : -0.3262E-02 eV
  | Change of total energy        :  0.6679E-08 eV

  Electronic self-consistency reached - switching on the force computation.

  End self-consistency iteration #     8       :  max(cpu_time)    wall_clock(cpu1)
  | Time for this iteration                    :        0.105 s           0.106 s
  | Charge density & force component update    :        0.030 s           0.030 s
  | Density mixing                             :        0.002 s           0.003 s
  | Hartree multipole update                   :        0.005 s           0.004 s
  | Hartree multipole summation                :        0.025 s           0.024 s
  | Integration                                :        0.042 s           0.043 s
  | Solution of K.-S. eqns.                    :        0.001 s           0.001 s
  | Total energy evaluation                    :        0.000 s           0.001 s
------------------------------------------------------------

------------------------------------------------------------
          Begin self-consistency iteration #    9

  Date     :  20190722, Time     :  140703.875
------------------------------------------------------------
  Evaluating new KS density.
  Integration grid: deviation in total charge (<rho> - N_e) =  -1.319034E-10
  Pulay mixing of updated and previous charge densities.

  Evaluating partitioned Hartree potential by multipole expansion.
  | Analytical far-field extrapolation by fixed multipoles:
  | Hartree multipole sum: apparent total charge =   0.802375E-07
  Summing up the Hartree potential.
  Time summed over all CPUs for potential: real work        0.254 s, elapsed        0.259 s
  | RMS charge density error from multipole expansion :   0.514683E-03

  Integrating Hamiltonian matrix: batch-based integration.
  Time summed over all CPUs for integration: real work        0.165 s, elapsed        0.167 s

  Updating Kohn-Sham eigenvalues, eigenvectors, occupation numbers, and Fermi level.
  Solving generalized eigenproblem
  Updating Kohn-Sham eigenvalues and eigenfunctions.
  Solving real generalised eigenvalue problem by standard LAPACK (fast)
  Determining occupation numbers for Kohn-Sham eigenstates.
  | Chemical potential (Fermi level) in eV                 : -.58499982E+01
  | Error in electron count due to remaining E_F inaccuracy: -.57440275E-10
  | Maximum occupation number of highest empty state:  0.00E+00

  Highest occupied state (VBM) at     -5.84999816 eV
  | Occupation number:      1.00000004

  Lowest unoccupied state (CBM) at    -5.84999816 eV
  | Occupation number:      0.99999996

  Overall HOMO-LUMO gap:      0.00000000 eV.

  Total energy components:
  | Sum of eigenvalues            :         -82.71510192 Ha       -2250.79244236 eV
  | XC energy correction          :         -16.83333227 Ha        -458.05827671 eV
  | XC potential correction       :          21.64041365 Ha         588.86561661 eV
  | Free-atom electrostatic energy:         -71.89305466 Ha       -1956.30955312 eV
  | Hartree energy correction     :          -0.41517314 Ha         -11.29743589 eV
  | Entropy correction            :          -0.00020734 Ha          -0.00564190 eV
  | ---------------------------
  | Total energy                  :        -150.21624833 Ha       -4087.59209146 eV
  | Total energy, T -> 0          :        -150.21645567 Ha       -4087.59773336 eV  <-- do not rely on this value for anything but (periodic) metals
  | Electronic free energy        :        -150.21666300 Ha       -4087.60337525 eV

  Derived energy quantities:
  | Kinetic energy                :         149.86329003 Ha        4077.98760741 eV
  | Electrostatic energy          :        -283.24620609 Ha       -7707.52142216 eV
  | Energy correction for multipole
  | error in Hartree potential    :          -0.00040178 Ha          -0.01093302 eV
  | Sum of eigenvalues per atom                           :       -1125.39622118 eV
  | Total energy (T->0) per atom                          :       -2043.79886668 eV  <-- do not rely on this value for anything but (periodic) metals
  | Electronic free energy per atom                       :       -2043.80168763 eV

  atomic forces [eV/Ang]:
  -----------------------
  atom #    1
   Hellmann-Feynman              : -0.129328E-10  0.170240E-10 -0.165607E+02
   Ionic forces                  :  0.000000E+00  0.000000E+00  0.000000E+00
   Multipole                     :  0.577015E-13 -0.771758E-13  0.265207E-01
   Pulay + GGA                   :  0.000000E+00  0.000000E+00  0.000000E+00
   ----------------------------------------------------------------
   Total forces(   1)            : -0.128751E-10  0.169468E-10 -0.165342E+02
  atom #    2
   Hellmann-Feynman              :  0.214310E-10  0.661526E-10  0.165607E+02
   Ionic forces                  :  0.000000E+00  0.000000E+00  0.000000E+00
   Multipole                     : -0.594608E-13 -0.453862E-13 -0.265207E-01
   Pulay + GGA                   :  0.000000E+00  0.000000E+00  0.000000E+00
   ----------------------------------------------------------------
   Total forces(   2)            :  0.213716E-10  0.661072E-10  0.165342E+02


  Self-consistency convergence accuracy:
  | Change of charge density      :  0.1078E-04
  | Change of sum of eigenvalues  :  0.1777E-02 eV
  | Change of total energy        :  0.6187E-10 eV
  | Change of forces              :  0.1653E+02 eV/A

  End self-consistency iteration #     9       :  max(cpu_time)    wall_clock(cpu1)
  | Time for this iteration                    :        0.147 s           0.146 s
  | Charge density & force component update    :        0.030 s           0.029 s
  | Density mixing                             :        0.002 s           0.003 s
  | Hartree multipole update                   :        0.005 s           0.004 s
  | Hartree multipole summation                :        0.065 s           0.065 s
  | Integration                                :        0.042 s           0.042 s
  | Solution of K.-S. eqns.                    :        0.001 s           0.001 s
  | Total energy evaluation                    :        0.001 s           0.001 s
------------------------------------------------------------

------------------------------------------------------------
          Begin self-consistency iteration #   10

  Date     :  20190722, Time     :  140704.022
------------------------------------------------------------
  Evaluating new KS density and force components.
  Integration grid: deviation in total charge (<rho> - N_e) =  -5.774936E-11
  Pulay mixing of updated and previous charge densities.

  Evaluating partitioned Hartree potential by multipole expansion.
  | Analytical far-field extrapolation by fixed multipoles:
  | Hartree multipole sum: apparent total charge =   0.802493E-07
  Summing up the Hartree potential.
  Time summed over all CPUs for potential: real work        0.253 s, elapsed        0.259 s
  | RMS charge density error from multipole expansion :   0.514685E-03

  Integrating Hamiltonian matrix: batch-based integration.
  Time summed over all CPUs for integration: real work        0.165 s, elapsed        0.167 s

  Updating Kohn-Sham eigenvalues, eigenvectors, occupation numbers, and Fermi level.
  Solving generalized eigenproblem
  Updating Kohn-Sham eigenvalues and eigenfunctions.
  Solving real generalised eigenvalue problem by standard LAPACK (fast)
  Determining occupation numbers for Kohn-Sham eigenstates.
  | Chemical potential (Fermi level) in eV                 : -.58500027E+01
  | Error in electron count due to remaining E_F inaccuracy: -.59911187E-10
  | Maximum occupation number of highest empty state:  0.00E+00

  Highest occupied state (VBM) at     -5.85000270 eV
  | Occupation number:      1.00000230

  Lowest unoccupied state (CBM) at    -5.85000266 eV
  | Occupation number:      0.99999770

  Overall HOMO-LUMO gap:      0.00000004 eV.

  Total energy components:
  | Sum of eigenvalues            :         -82.71510517 Ha       -2250.79253084 eV
  | XC energy correction          :         -16.83333181 Ha        -458.05826433 eV
  | XC potential correction       :          21.64041306 Ha         588.86560040 eV
  | Free-atom electrostatic energy:         -71.89305466 Ha       -1956.30955312 eV
  | Hartree energy correction     :          -0.41516975 Ha         -11.29734357 eV
  | Entropy correction            :          -0.00020734 Ha          -0.00564190 eV
  | ---------------------------
  | Total energy                  :        -150.21624833 Ha       -4087.59209146 eV
  | Total energy, T -> 0          :        -150.21645567 Ha       -4087.59773336 eV  <-- do not rely on this value for anything but (periodic) metals
  | Electronic free energy        :        -150.21666300 Ha       -4087.60337525 eV

  Derived energy quantities:
  | Kinetic energy                :         149.86328655 Ha        4077.98751271 eV
  | Electrostatic energy          :        -283.24620307 Ha       -7707.52133984 eV
  | Energy correction for multipole
  | error in Hartree potential    :          -0.00040178 Ha          -0.01093303 eV
  | Sum of eigenvalues per atom                           :       -1125.39626542 eV
  | Total energy (T->0) per atom                          :       -2043.79886668 eV  <-- do not rely on this value for anything but (periodic) metals
  | Electronic free energy per atom                       :       -2043.80168763 eV

  atomic forces [eV/Ang]:
  -----------------------
  atom #    1
   Hellmann-Feynman              :  0.773855E-10 -0.617431E-10 -0.165607E+02
   Ionic forces                  :  0.000000E+00  0.000000E+00  0.000000E+00
   Multipole                     : -0.331900E-13  0.124526E-12  0.265209E-01
   Pulay + GGA                   :  0.559838E-11 -0.360238E-11  0.156454E+02
   ----------------------------------------------------------------
   Total forces(   1)            :  0.829507E-10 -0.652210E-10 -0.888779E+00
  atom #    2
   Hellmann-Feynman              : -0.701365E-10 -0.164482E-09  0.165607E+02
   Ionic forces                  :  0.000000E+00  0.000000E+00  0.000000E+00
   Multipole                     : -0.320780E-12  0.110973E-12 -0.265209E-01
   Pulay + GGA                   : -0.561765E-11 -0.165418E-10 -0.156454E+02
   ----------------------------------------------------------------
   Total forces(   2)            : -0.760749E-10 -0.180913E-09  0.888779E+00


  Self-consistency convergence accuracy:
  | Change of charge density      :  0.6731E-06
  | Change of sum of eigenvalues  : -0.8849E-04 eV
  | Change of total energy        : -0.5244E-09 eV
  | Change of forces              :  0.3307E-04 eV/A

  End self-consistency iteration #    10       :  max(cpu_time)    wall_clock(cpu1)
  | Time for this iteration                    :        0.216 s           0.217 s
  | Charge density & force component update    :        0.100 s           0.100 s
  | Density mixing                             :        0.003 s           0.003 s
  | Hartree multipole update                   :        0.004 s           0.004 s
  | Hartree multipole summation                :        0.065 s           0.065 s
  | Integration                                :        0.043 s           0.042 s
  | Solution of K.-S. eqns.                    :        0.001 s           0.001 s
  | Total energy evaluation                    :        0.001 s           0.002 s
------------------------------------------------------------

------------------------------------------------------------
          Begin self-consistency iteration #   11

  Date     :  20190722, Time     :  140704.240
------------------------------------------------------------
  Evaluating new KS density and force components.
  Integration grid: deviation in total charge (<rho> - N_e) =  -5.987211E-11
  Pulay mixing of updated and previous charge densities.

  Evaluating partitioned Hartree potential by multipole expansion.
  | Analytical far-field extrapolation by fixed multipoles:
  | Hartree multipole sum: apparent total charge =   0.802495E-07
  Summing up the Hartree potential.
  Time summed over all CPUs for potential: real work        0.255 s, elapsed        0.260 s
  | RMS charge density error from multipole expansion :   0.514685E-03

  Integrating Hamiltonian matrix: batch-based integration.
  Time summed over all CPUs for integration: real work        0.167 s, elapsed        0.169 s

  Updating Kohn-Sham eigenvalues, eigenvectors, occupation numbers, and Fermi level.
  Solving generalized eigenproblem
  Updating Kohn-Sham eigenvalues and eigenfunctions.
  Solving real generalised eigenvalue problem by standard LAPACK (fast)
  Determining occupation numbers for Kohn-Sham eigenstates.
  | Chemical potential (Fermi level) in eV                 : -.58500027E+01
  | Error in electron count due to remaining E_F inaccuracy: -.59825922E-10
  | Maximum occupation number of highest empty state:  0.00E+00

  Highest occupied state (VBM) at     -5.85000272 eV
  | Occupation number:      1.00000000

  Lowest unoccupied state (CBM) at    -5.85000272 eV
  | Occupation number:      1.00000000

  Overall HOMO-LUMO gap:      0.00000000 eV.

  Total energy components:
  | Sum of eigenvalues            :         -82.71510520 Ha       -2250.79253157 eV
  | XC energy correction          :         -16.83333181 Ha        -458.05826420 eV
  | XC potential correction       :          21.64041305 Ha         588.86560023 eV
  | Free-atom electrostatic energy:         -71.89305466 Ha       -1956.30955312 eV
  | Hartree energy correction     :          -0.41516972 Ha         -11.29734280 eV
  | Entropy correction            :          -0.00020734 Ha          -0.00564190 eV
  | ---------------------------
  | Total energy                  :        -150.21624833 Ha       -4087.59209146 eV
  | Total energy, T -> 0          :        -150.21645567 Ha       -4087.59773336 eV  <-- do not rely on this value for anything but (periodic) metals
  | Electronic free energy        :        -150.21666300 Ha       -4087.60337525 eV

  Derived energy quantities:
  | Kinetic energy                :         149.86328648 Ha        4077.98751076 eV
  | Electrostatic energy          :        -283.24620300 Ha       -7707.52133803 eV
  | Energy correction for multipole
  | error in Hartree potential    :          -0.00040178 Ha          -0.01093303 eV
  | Sum of eigenvalues per atom                           :       -1125.39626578 eV
  | Total energy (T->0) per atom                          :       -2043.79886668 eV  <-- do not rely on this value for anything but (periodic) metals
  | Electronic free energy per atom                       :       -2043.80168763 eV

  atomic forces [eV/Ang]:
  -----------------------
  atom #    1
   Hellmann-Feynman              :  0.777801E-10 -0.617768E-10 -0.165607E+02
   Ionic forces                  :  0.000000E+00  0.000000E+00  0.000000E+00
   Multipole                     : -0.574280E-14  0.909051E-13  0.265209E-01
   Pulay + GGA                   : -0.185442E-10  0.102248E-10  0.156454E+02
   ----------------------------------------------------------------
   Total forces(   1)            :  0.592301E-10 -0.514611E-10 -0.888790E+00
  atom #    2
   Hellmann-Feynman              : -0.703674E-10 -0.165535E-09  0.165607E+02
   Ionic forces                  :  0.000000E+00  0.000000E+00  0.000000E+00
   Multipole                     : -0.271148E-12  0.151825E-12 -0.265209E-01
   Pulay + GGA                   :  0.125484E-10  0.383987E-10 -0.156454E+02
   ----------------------------------------------------------------
   Total forces(   2)            : -0.580902E-10 -0.126984E-09  0.888790E+00


  Self-consistency convergence accuracy:
  | Change of charge density      :  0.7167E-06
  | Change of sum of eigenvalues  : -0.7263E-06 eV
  | Change of total energy        : -0.1469E-10 eV
  | Change of forces              :  0.2150E-05 eV/A

  Writing Kohn-Sham eigenvalues.

  State    Occupation    Eigenvalue [Ha]    Eigenvalue [eV]
      1       2.00000         -18.897921         -514.23858
      2       2.00000         -18.897842         -514.23644
      3       2.00000          -1.193990          -32.49011
      4       2.00000          -0.726169          -19.76006
      5       2.00000          -0.486243          -13.23136
      6       2.00000          -0.470202          -12.79485
      7       2.00000          -0.470202          -12.79485
      8       1.00000          -0.214984           -5.85000
      9       1.00000          -0.214984           -5.85000
     10       0.00000           0.084606            2.30226
     11       0.00000           0.099006            2.69408
     12       0.00000           0.137022            3.72856
     13       0.00000           0.137022            3.72856
     14       0.00000           0.211123            5.74495

  Highest occupied state (VBM) at     -5.85000272 eV
  | Occupation number:      1.00000000

  Lowest unoccupied state (CBM) at    -5.85000272 eV
  | Occupation number:      1.00000000

  Overall HOMO-LUMO gap:      0.00000000 eV.

  Self-consistency cycle converged.

  End self-consistency iteration #    11       :  max(cpu_time)    wall_clock(cpu1)
  | Time for this iteration                    :        0.227 s           0.228 s
  | Charge density & force component update    :        0.102 s           0.103 s
  | Density mixing                             :        0.005 s           0.005 s
  | Hartree multipole update                   :        0.005 s           0.004 s
  | Hartree multipole summation                :        0.066 s           0.066 s
  | Integration                                :        0.043 s           0.043 s
  | Solution of K.-S. eqns.                    :        0.003 s           0.004 s
  | Total energy evaluation                    :        0.001 s           0.002 s
------------------------------------------------------------
  Writing cluster restart information to file restart
  Removing unitary transformations (pure translations, rotations) from forces on atoms.
  Atomic forces before filtering:
  | Net force on center of mass :   0.113993E-11 -0.178445E-09 -0.445691E-10 eV/A
  | Net torque on center of mass:   0.455970E-10 -0.708321E-10  0.000000E+00 eV
  Atomic forces after filtering:
  | Net force on center of mass :   0.324519E-27  0.000000E+00  0.000000E+00 eV/A
  | Net torque on center of mass:   0.125394E-25 -0.188091E-25  0.000000E+00 eV

  Energy and forces in a compact form:
  | Total energy uncorrected      :         -0.408759209146055E+04 eV
  | Total energy corrected        :         -0.408759773335626E+04 eV  <-- do not rely on this value for anything but (periodic) metals
  | Electronic free energy        :         -0.408760337525197E+04 eV
  Total atomic forces (unitary forces cleaned) [eV/Ang]:
  |   1          0.157391641916835E-25          0.103846031780180E-25         -0.888790134134198E+00
  |   2         -0.154146453423704E-25         -0.103846031780180E-25          0.888790134134198E+00

  ------------------------------------ 
  Start decomposition of the XC Energy 
  ------------------------------------ 
  Hartree-Fock part   :          0.000000000 Ha              0.000000000 eV
  ------------------------------------ 
  X Energy            :        -16.298858845 Ha           -443.514514946 eV
  C Energy GGA        :         -0.534472961 Ha            -14.543749253 eV
  Total XC Energy     :        -16.833331806 Ha           -458.058264199 eV
[...]
  | Density mixing                             :        0.002 s           0.001 s
  | Hartree multipole update                   :        0.004 s           0.004 s
  | Hartree multipole summation                :        0.066 s           0.066 s
  | Integration                                :        0.042 s           0.042 s
  | Solution of K.-S. eqns.                    :        0.001 s           0.001 s
  | Total energy evaluation                    :        0.001 s           0.002 s
------------------------------------------------------------

------------------------------------------------------------
          Begin self-consistency iteration #    6

  Date     :  20190722, Time     :  140708.608
------------------------------------------------------------
  Evaluating new KS density and force components.
  Integration grid: deviation in total charge (<rho> - N_e) =  -8.881784E-15
  Pulay mixing of updated and previous charge densities.

  Evaluating partitioned Hartree potential by multipole expansion.
  | Analytical far-field extrapolation by fixed multipoles:
  | Hartree multipole sum: apparent total charge =  -0.109046E-06
  Summing up the Hartree potential.
  Time summed over all CPUs for potential: real work        0.262 s, elapsed        0.268 s
  | RMS charge density error from multipole expansion :   0.500623E-03

  Integrating Hamiltonian matrix: batch-based integration.
  Time summed over all CPUs for integration: real work        0.171 s, elapsed        0.173 s

  Updating Kohn-Sham eigenvalues, eigenvectors, occupation numbers, and Fermi level.
  Solving generalized eigenproblem
  Updating Kohn-Sham eigenvalues and eigenfunctions.
  Solving real generalised eigenvalue problem by standard LAPACK (fast)
  Determining occupation numbers for Kohn-Sham eigenstates.
  | Chemical potential (Fermi level) in eV                 : -.59481513E+01
  | Error in electron count due to remaining E_F inaccuracy: -.85265128E-13
  | Maximum occupation number of highest empty state:  0.00E+00

  Highest occupied state (VBM) at     -5.94815131 eV
  | Occupation number:      1.00000714

  Lowest unoccupied state (CBM) at    -5.94815119 eV
  | Occupation number:      0.99999286

  Overall HOMO-LUMO gap:      0.00000013 eV.

  Total energy components:
  | Sum of eigenvalues            :         -82.69601732 Ha       -2250.27312394 eV
  | XC energy correction          :         -16.82278877 Ha        -457.77137347 eV
  | XC potential correction       :          21.62628359 Ha         588.48111811 eV
  | Free-atom electrostatic energy:         -71.93778667 Ha       -1957.52677307 eV
  | Hartree energy correction     :          -0.38613534 Ha         -10.50727708 eV
  | Entropy correction            :          -0.00020734 Ha          -0.00564190 eV
  | ---------------------------
  | Total energy                  :        -150.21644450 Ha       -4087.59742945 eV
  | Total energy, T -> 0          :        -150.21665183 Ha       -4087.60307135 eV  <-- do not rely on this value for anything but (periodic) metals
  | Electronic free energy        :        -150.21685917 Ha       -4087.60871325 eV

  Derived energy quantities:
  | Kinetic energy                :         149.82378825 Ha        4076.91270920 eV
  | Electrostatic energy          :        -283.21744398 Ha       -7706.73876518 eV
  | Energy correction for multipole
  | error in Hartree potential    :          -0.00037820 Ha          -0.01029132 eV
  | Sum of eigenvalues per atom                           :       -1125.13656197 eV
  | Total energy (T->0) per atom                          :       -2043.80153567 eV  <-- do not rely on this value for anything but (periodic) metals
  | Electronic free energy per atom                       :       -2043.80435662 eV

  atomic forces [eV/Ang]:
  -----------------------
  atom #    1
   Hellmann-Feynman              : -0.206721E-11 -0.654783E-12 -0.156592E+02
   Ionic forces                  :  0.000000E+00  0.000000E+00  0.000000E+00
   Multipole                     : -0.563638E-13  0.814962E-13  0.246960E-01
   Pulay + GGA                   : -0.610863E-12 -0.927712E-12  0.156345E+02
   ----------------------------------------------------------------
   Total forces(   1)            : -0.273444E-11 -0.150100E-11 -0.494257E-04
  atom #    2
   Hellmann-Feynman              :  0.585504E-12 -0.184680E-11  0.156592E+02
   Ionic forces                  :  0.000000E+00  0.000000E+00  0.000000E+00
   Multipole                     : -0.532988E-14  0.366778E-13 -0.246960E-01
   Pulay + GGA                   :  0.196960E-12 -0.212089E-11 -0.156345E+02
   ----------------------------------------------------------------
   Total forces(   2)            :  0.777134E-12 -0.393101E-11  0.494260E-04


  Self-consistency convergence accuracy:
  | Change of charge density      :  0.7244E-06
  | Change of sum of eigenvalues  : -0.1026E-04 eV
  | Change of total energy        :  0.1276E-09 eV
  | Change of forces              :  0.2218E-03 eV/A

  End self-consistency iteration #     6       :  max(cpu_time)    wall_clock(cpu1)
  | Time for this iteration                    :        0.225 s           0.226 s
  | Charge density & force component update    :        0.099 s           0.099 s
  | Density mixing                             :        0.002 s           0.002 s
  | Hartree multipole update                   :        0.004 s           0.004 s
  | Hartree multipole summation                :        0.069 s           0.070 s
  | Integration                                :        0.045 s           0.044 s
  | Solution of K.-S. eqns.                    :        0.004 s           0.004 s
  | Total energy evaluation                    :        0.002 s           0.001 s
------------------------------------------------------------

------------------------------------------------------------
          Begin self-consistency iteration #    7

  Date     :  20190722, Time     :  140708.835
------------------------------------------------------------
  Evaluating new KS density and force components.
  Integration grid: deviation in total charge (<rho> - N_e) =  -7.460699E-14
  Pulay mixing of updated and previous charge densities.

  Evaluating partitioned Hartree potential by multipole expansion.
  | Analytical far-field extrapolation by fixed multipoles:
  | Hartree multipole sum: apparent total charge =  -0.109046E-06
  Summing up the Hartree potential.
  Time summed over all CPUs for potential: real work        0.256 s, elapsed        0.260 s
  | RMS charge density error from multipole expansion :   0.500623E-03

  Integrating Hamiltonian matrix: batch-based integration.
  Time summed over all CPUs for integration: real work        0.167 s, elapsed        0.168 s

  Updating Kohn-Sham eigenvalues, eigenvectors, occupation numbers, and Fermi level.
  Solving generalized eigenproblem
  Updating Kohn-Sham eigenvalues and eigenfunctions.
  Solving real generalised eigenvalue problem by standard LAPACK (fast)
  Determining occupation numbers for Kohn-Sham eigenstates.
  | Chemical potential (Fermi level) in eV                 : -.59481513E+01
  | Error in electron count due to remaining E_F inaccuracy: -.85265128E-13
  | Maximum occupation number of highest empty state:  0.00E+00

  Highest occupied state (VBM) at     -5.94815131 eV
  | Occupation number:      1.00000017

  Lowest unoccupied state (CBM) at    -5.94815131 eV
  | Occupation number:      0.99999983

  Overall HOMO-LUMO gap:      0.00000000 eV.

  Total energy components:
  | Sum of eigenvalues            :         -82.69601734 Ha       -2250.27312447 eV
  | XC energy correction          :         -16.82278877 Ha        -457.77137351 eV
  | XC potential correction       :          21.62628359 Ha         588.48111816 eV
  | Free-atom electrostatic energy:         -71.93778667 Ha       -1957.52677307 eV
  | Hartree energy correction     :          -0.38613532 Ha         -10.50727656 eV
  | Entropy correction            :          -0.00020734 Ha          -0.00564190 eV
  | ---------------------------
  | Total energy                  :        -150.21644450 Ha       -4087.59742945 eV
  | Total energy, T -> 0          :        -150.21665183 Ha       -4087.60307135 eV  <-- do not rely on this value for anything but (periodic) metals
  | Electronic free energy        :        -150.21685917 Ha       -4087.60871325 eV

  Derived energy quantities:
  | Kinetic energy                :         149.82378835 Ha        4076.91271209 eV
  | Electrostatic energy          :        -283.21744408 Ha       -7706.73876803 eV
  | Energy correction for multipole
  | error in Hartree potential    :          -0.00037820 Ha          -0.01029132 eV
  | Sum of eigenvalues per atom                           :       -1125.13656224 eV
  | Total energy (T->0) per atom                          :       -2043.80153567 eV  <-- do not rely on this value for anything but (periodic) metals
  | Electronic free energy per atom                       :       -2043.80435662 eV

  atomic forces [eV/Ang]:
  -----------------------
  atom #    1
   Hellmann-Feynman              : -0.218246E-11 -0.889796E-12 -0.156592E+02
   Ionic forces                  :  0.000000E+00  0.000000E+00  0.000000E+00
   Multipole                     : -0.438015E-13  0.390488E-13  0.246960E-01
   Pulay + GGA                   :  0.782132E-12 -0.142725E-12  0.156345E+02
   ----------------------------------------------------------------
   Total forces(   1)            : -0.144413E-11 -0.993472E-12 -0.672269E-04
  atom #    2
   Hellmann-Feynman              :  0.569856E-12 -0.204003E-11  0.156592E+02
   Ionic forces                  :  0.000000E+00  0.000000E+00  0.000000E+00
   Multipole                     :  0.531511E-13 -0.755606E-13 -0.246960E-01
   Pulay + GGA                   : -0.254050E-12  0.433884E-12 -0.156345E+02
   ----------------------------------------------------------------
   Total forces(   2)            :  0.368956E-12 -0.168171E-11  0.672272E-04


  Self-consistency convergence accuracy:
  | Change of charge density      :  0.2229E-05
  | Change of sum of eigenvalues  : -0.5306E-06 eV
  | Change of total energy        :  0.6187E-11 eV
  | Change of forces              :  0.1126E-04 eV/A

  Writing Kohn-Sham eigenvalues.

  State    Occupation    Eigenvalue [Ha]    Eigenvalue [eV]
      1       2.00000         -18.899017         -514.26841
      2       2.00000         -18.898949         -514.26656
      3       2.00000          -1.184417          -32.22963
      4       2.00000          -0.729679          -19.85558
      5       2.00000          -0.485100          -13.20023
      6       2.00000          -0.466128          -12.68400
      7       2.00000          -0.466128          -12.68400
      8       1.00000          -0.218591           -5.94815
      9       1.00000          -0.218591           -5.94815
     10       0.00000           0.079443            2.16176
     11       0.00000           0.098996            2.69383
     12       0.00000           0.137495            3.74142
     13       0.00000           0.137495            3.74142
     14       0.00000           0.210941            5.74000

  Highest occupied state (VBM) at     -5.94815131 eV
  | Occupation number:      1.00000017

  Lowest unoccupied state (CBM) at    -5.94815131 eV
  | Occupation number:      0.99999983

  Overall HOMO-LUMO gap:      0.00000000 eV.

  Self-consistency cycle converged.

  End self-consistency iteration #     7       :  max(cpu_time)    wall_clock(cpu1)
  | Time for this iteration                    :        0.218 s           0.220 s
  | Charge density & force component update    :        0.100 s           0.101 s
  | Density mixing                             :        0.003 s           0.003 s
  | Hartree multipole update                   :        0.005 s           0.004 s
  | Hartree multipole summation                :        0.065 s           0.065 s
  | Integration                                :        0.043 s           0.043 s
  | Solution of K.-S. eqns.                    :        0.002 s           0.002 s
  | Total energy evaluation                    :        0.001 s           0.001 s
------------------------------------------------------------
  Writing cluster restart information to file restart
  Removing unitary transformations (pure translations, rotations) from forces on atoms.
  Atomic forces before filtering:
  | Net force on center of mass :  -0.107517E-11 -0.267518E-11  0.232140E-09 eV/A
  | Net torque on center of mass:   0.419715E-12  0.110569E-11  0.231006E-46 eV
  Atomic forces after filtering:
  | Net force on center of mass :  -0.243389E-27 -0.649038E-27  0.000000E+00 eV/A
  | Net torque on center of mass:   0.197904E-27  0.494761E-28  0.103368E-62 eV

  Energy and forces in a compact form:
  | Total energy uncorrected      :         -0.408759742945420E+04 eV
  | Total energy corrected        :         -0.408760307134991E+04 eV  <-- do not rely on this value for anything but (periodic) metals
  | Electronic free energy        :         -0.408760871324562E+04 eV
  Total atomic forces (unitary forces cleaned) [eV/Ang]:
  |   1         -0.162259424656531E-27         -0.162259424656531E-27         -0.672270585021431E-04
  |   2         -0.811297123282653E-28         -0.486778273969592E-27          0.672270585021431E-04

  ------------------------------------ 
  Start decomposition of the XC Energy 
  ------------------------------------ 
  Hartree-Fock part   :          0.000000000 Ha              0.000000000 eV
  ------------------------------------ 
  X Energy            :        -16.289140760 Ha           -443.250072387 eV
  C Energy GGA        :         -0.533648008 Ha            -14.521301126 eV
  Total XC Energy     :        -16.822788767 Ha           -457.771373514 eV
  LDA X and C from self-consistent density 
  X Energy LDA        :        -14.787931970 Ha           -402.400102786 eV
  C Energy LDA        :         -1.111760106 Ha            -30.252531725 eV
  ------------------------------------ 
  End decomposition of the XC Energy 
  ------------------------------------ 
  Relaxation / MD: End force evaluation.       :  max(cpu_time)    wall_clock(cpu1)
  | Time for this force evaluation             :        1.085 s           1.107 s

------------------------------------------------------------
  Geometry optimization: Attempting to predict improved coordinates.

  Removing unitary transformations (pure translations, rotations) from forces on atoms.
  Atomic forces before filtering:
  | Net force on center of mass :  -0.243389E-27 -0.649038E-27  0.000000E+00 eV/A
  | Net torque on center of mass:   0.197904E-27  0.494761E-28  0.103368E-62 eV
  Atomic forces after filtering:
  | Net force on center of mass :  -0.360288E-43 -0.108086E-42  0.000000E+00 eV/A
  | Net torque on center of mass:   0.325449E-43  0.000000E+00  0.000000E+00 eV
  Net remaining forces (excluding translations, rotations) in present geometry:
  Maximum force component is  0.672271E-04 eV/A.
  Present geometry is converged.

------------------------------------------------------------
  Final atomic structure:
                         x [A]             y [A]             z [A]
            atom        -0.00000000        0.00000000       -0.00608953  O
            atom        -0.00000000       -0.00000000        1.21358953  O
------------------------------------------------------------

------------------------------------------------------------------------------
  Final output of selected total energy values:

  The following output summarizes some interesting total energy values
  at the end of a run (AFTER all relaxation, molecular dynamics, etc.).

  | Total energy of the DFT / Hartree-Fock s.c.f. calculation      :          -4087.597429454 eV
  | Final zero-broadening corrected energy (caution - metals only) :          -4087.603071350 eV
  | For reference only, the value of 1 Hartree used in FHI-aims is :             27.211384500 eV

  Before relying on these values, please be sure to understand exactly which
  total energy value is referred to by a given number. Different objects may
  all carry the same name 'total energy'. Definitions:

  Total energy of the DFT / Hartree-Fock s.c.f. calculation:
  | Note that this energy does not include ANY quantities calculated after the
  | s.c.f. cycle, in particular not ANY RPA, MP2, etc. many-body perturbation terms.

  Final zero-broadening corrected energy:
  | For metallic systems only, a broadening of the occupation numbers at the Fermi
  | level can be extrapolated back to zero broadening by an electron-gas inspired
  | formula. For all systems that are not real metals, this value can be
  | meaningless and should be avoided.

------------------------------------------------------------------------------
  Methods described in the following list of references were used in this FHI-aims run.
  If you publish the results, please make sure to cite these reference if they apply.
  FHI-aims is an academic code, and for our developers (often, Ph.D. students
  and postdocs), scientific credit in the community is essential.
  Thank you for helping us!

  For any use of FHI-aims, please cite:

    Volker Blum, Ralf Gehrke, Felix Hanke, Paula Havu, Ville Havu,
    Xinguo Ren, Karsten Reuter, and Matthias Scheffler
    'Ab initio molecular simulations with numeric atom-centered orbitals'
    Computer Physics Communications 180, 2175-2196 (2009)
    http://dx.doi.org/10.1016/j.cpc.2009.06.022


  For the real-space grid partitioning and parallelization used in this calculation, please cite:

    Ville Havu, Volker Blum, Paula Havu, and Matthias Scheffler,
    'Efficient O(N) integration for all-electron electronic structure calculation'
    'using numerically tabulated basis functions'
    Journal of Computational Physics 228, 8367-8379 (2009).
    http://dx.doi.org/10.1016/j.jcp.2009.08.008

  Of course, there are many other important community references, e.g., those cited in the
  above references. Our list is limited to references that describe implementations in the
  FHI-aims code. The reason is purely practical (length of this list) - please credit others as well.

------------------------------------------------------------
          Leaving FHI-aims.
          Date     :  20190722, Time     :  140709.096

          Computational steps:
          | Number of self-consistency cycles          :           35
          | Number of relaxation steps                 :            3

          Detailed time accounting                     :  max(cpu_time)    wall_clock(cpu1)
          | Total time                                 :        5.281 s           7.788 s
          | Preparation time                           :        0.146 s           0.155 s
          | Grid partitioning                          :        0.092 s           0.089 s
          | Preloading free-atom quantities on grid    :        0.043 s           0.041 s
          | Free-atom superposition energy             :        0.038 s           0.037 s
          | Total time for integrations                :        1.603 s           1.599 s
          | Total time for solution of K.-S. equations :        0.075 s           0.080 s
          | Total time for EV reorthonormalization     :        0.004 s           0.004 s
          | Total time for density & force components  :        1.480 s           1.475 s
          | Total time for mixing                      :        0.069 s           0.072 s
          | Total time for Hartree multipole update    :        0.153 s           0.130 s
          | Total time for Hartree multipole sum       :        1.289 s           1.288 s
          | Total time for total energy evaluation     :        0.020 s           0.036 s

          Have a nice day.
------------------------------------------------------------
