  MPI-parallelism will be employed.
------------------------------------------------------------
          Invoking FHI-aims ...
          Version 160328_3
          Compiled on 2019/06/10 at 14:55:49 on host taito-login3.csc.fi.

          When using FHI-aims, please cite the following reference:

          Volker Blum, Ralf Gehrke, Felix Hanke, Paula Havu,
          Ville Havu, Xinguo Ren, Karsten Reuter, and Matthias Scheffler,
          'Ab Initio Molecular Simulations with Numeric Atom-Centered Orbitals',
          Computer Physics Communications 180, 2175-2196 (2009)

          For any questions about FHI-aims, please visit the aimsclub website
          with its forums and wiki. Contributions to both the forums and the
          wiki are warmly encouraged - they are for you, and everyone is welcome there.

------------------------------------------------------------

  Date     :  20190722, Time     :  143610.735
  Time zero on CPU 1             :   0.629900000000000E-01  s.
  Internal wall clock time zero  :           333038170.735  s.

  Using        8 parallel tasks.
  Task        0 on host c672 reporting.
  Task        1 on host c672 reporting.
  Task        2 on host c672 reporting.
  Task        3 on host c672 reporting.
  Task        4 on host c672 reporting.
  Task        5 on host c672 reporting.
  Task        6 on host c672 reporting.
  Task        7 on host c672 reporting.

  Performing system and environment tests:
  | Environment variable OMP_NUM_THREADS correctly set to 1.
  | Maximum stacksize for task 0: unlimited
  | Maximum stacksize for task 1: unlimited
  | Maximum stacksize for task 2: unlimited
  | Maximum stacksize for task 3: unlimited
  | Maximum stacksize for task 4: unlimited
  | Maximum stacksize for task 5: unlimited
  | Maximum stacksize for task 6: unlimited
  | Maximum stacksize for task 7: unlimited
  | Current stacksize for task 0: 1024 [Mb]
  | Current stacksize for task 1: 1024 [Mb]
  | Current stacksize for task 2: 1024 [Mb]
  | Current stacksize for task 3: 1024 [Mb]
  | Current stacksize for task 4: 1024 [Mb]
  | Current stacksize for task 5: 1024 [Mb]
  | Current stacksize for task 6: 1024 [Mb]
  | Current stacksize for task 7: 1024 [Mb]
  | Checking for scalapack...
  | No scalapack compiled in.

  Obtaining array dimensions for all initial allocations:
  
  -----------------------------------------------------------------------
  Parsing control.in (first pass over file, find array dimensions only).
  The contents of control.in will be repeated verbatim below
  unless switched off by setting 'verbatim_writeout .false.' .
  in the first line of control.in .
  -----------------------------------------------------------------------
  
    #  Physical model settings
    #
  
    xc                            pbe
    charge                        0.0
    relativistic                  none
  #  default_initial_moment        0.0
    spin                          none
  #  vdw_correction_hirshfeld
  
    #  SCF convergence settings
    #
  
    sc_accuracy_rho               1E-4
    sc_accuracy_eev               1E-2
    sc_accuracy_etot              1E-8
    sc_iter_limit                 100
  
    #  Occupation settings
    #
  
    restart                       restart
  #  force_occupation_projector      21 1 1.0 20 21 # ion 0
  #  force_occupation_projector      20 1 1.0 20 21 # ion 1
  #  force_occupation_projector      19 1 1.0 18 19 # ion 2
  #  force_occupation_projector      18 1 1.0 18 19 # ion 3
  #  force_occupation_projector      17 1 1.0 17 17 # ion 4
  
    #  Relaxation
    #
  
    #####relax_geometry                bfgs    1.e-4
  
  
  ################################################################################
  #
  #  FHI-aims code project
  #  VB, Fritz-Haber Institut, 2007
  #
  #  Suggested "safe" defaults for O atom (to be pasted into control.in file)
  #
  ################################################################################
    species        O
  #     global species definitions
      nucleus             8
      mass                15.9994
  #
      l_hartree           8
  #
      cut_pot             4.0  2.0  1.0
      basis_dep_cutoff    0.d0
  #
      radial_base         36 7.0
      radial_multiplier   2
       angular_grids specified
        division   0.4087  110
        division   0.5181  194
        division   0.6184  302
        division   0.7315  434
        division   0.7934  590
  #      division   0.9656  770
  #      division   1.4041  974
  #      outer_grid 974
        outer_grid 590
  ################################################################################
  #
  #  Definition of "minimal" basis
  #
  ################################################################################
  #     valence basis states
      valence      2  s   2.
      valence      2  p   4.
  #     ion occupancy
      ion_occ      2  s   1.
      ion_occ      2  p   3.
  ################################################################################
  #
  #  Suggested additional basis functions. For production calculations,
  #  uncomment them one after another (the most important basis functions are
  #  listed first).
  #
  #  Constructed for dimers: 1.0 A, 1.208 A, 1.5 A, 2.0 A, 3.0 A
  #
  ################################################################################
  #  "First tier" - improvements: -699.05 meV to -159.38 meV
       hydro 2 p 1.8
       hydro 3 d 7.6
       hydro 3 s 6.4
  #  "Second tier" - improvements: -49.91 meV to -5.39 meV
       hydro 4 f 11.6
       hydro 3 p 6.2
       hydro 3 d 5.6
       hydro 5 g 17.6
       hydro 1 s 0.75
  #  "Third tier" - improvements: -2.83 meV to -0.50 meV
  #     ionic 2 p auto
  #     hydro 4 f 10.8
  #     hydro 4 d 4.7
  #     hydro 2 s 6.8
  #  "Fourth tier" - improvements: -0.40 meV to -0.12 meV
  #     hydro 3 p 5
  #     hydro 3 s 3.3
  #     hydro 5 g 15.6
  #     hydro 4 f 17.6
  #     hydro 4 d 14
  # Further basis functions - -0.08 meV and below
  #     hydro 3 s 2.1
  #     hydro 4 d 11.6
  #     hydro 3 p 16
  #     hydro 2 s 17.2
  compute_forces .true.
  final_forces_cleaned .true.
  output dipole
  
  -----------------------------------------------------------------------
  Completed first pass over input file control.in .
  -----------------------------------------------------------------------
  
  
  -----------------------------------------------------------------------
  Parsing geometry.in (first pass over file, find array dimensions only).
  The contents of geometry.in will be repeated verbatim below
  unless switched off by setting 'verbatim_writeout .false.' .
  in the first line of geometry.in .
  -----------------------------------------------------------------------
  
  #
  # temporary structure-file for finite-difference calculation of forces
  # displacement  -0.0025 of \# atom     0 direction     2
  #
  atom    0.00000000   -0.00000000    0.03985920   O
  atom   -0.00000000   -0.00000000    1.16514080   O
  
  -----------------------------------------------------------------------
  Completed first pass over input file geometry.in .
  -----------------------------------------------------------------------
  

  Basic array size parameters:
  | Number of species                 :        1
  | Number of atoms                   :        2
  | Max. basis fn. angular momentum   :        4
  | Max. atomic/ionic basis occupied n:        2
  | Max. number of basis fn. types    :        2
  | Max. radial fns per species/type  :        8
  | Max. logarithmic grid size        :     1301
  | Max. radial integration grid size :       73
  | Max. angular integration grid size:      590
  | Max. angular grid division number :        8
  | Radial grid for Hartree potential :     1301
  | Number of spin channels           :        1

------------------------------------------------------------
          Reading file control.in.
------------------------------------------------------------
  XC: Using PBE gradient-corrected functionals.
  Charge =   0.000000E+00: Neutral system requested explicitly.
  Non-relativistic treatment of kinetic energy.
  Spin treatment: No spin polarisation.
  Convergence accuracy of self-consistent charge density:  0.1000E-03
  Convergence accuracy of sum of eigenvalues:  0.1000E-01
  Convergence accuracy of total energy:  0.1000E-07
  Maximum number of s.-c. iterations  :   100
  Restart file specified as : restart
  | This file does not exist, will create it after the first complete scf cycle.
 
  Reading configuration options for species O                   .
  | Found nuclear charge :   8.0000
  | Found atomic mass :    15.9994000000000      amu
  | Found l_max for Hartree potential  :   8
  | Found cutoff potl. onset [A], width [A], scale factor :    4.00000    2.00000    1.00000
  | Threshold for basis-dependent cutoff potential is   0.000000E+00
  | Found data for basic radial integration grid :    36 points, outermost radius =    7.000 A
  | Found multiplier for basic radial grid :   2
  | Found angular grid specification: user-specified.
  | Specified grid contains     6 separate shells.
  | Check grid settings after all constraints further below.
  | Found free-atom valence shell :  2 s   2.000
  | Found free-atom valence shell :  2 p   4.000
  | No ionic wave fns used. Skipping ion_occ.
  | No ionic wave fns used. Skipping ion_occ.
  | Found hydrogenic basis function :  2 p   1.800
  | Found hydrogenic basis function :  3 d   7.600
  | Found hydrogenic basis function :  3 s   6.400
  | Found hydrogenic basis function :  4 f  11.600
  | Found hydrogenic basis function :  3 p   6.200
  | Found hydrogenic basis function :  3 d   5.600
  | Found hydrogenic basis function :  5 g  17.600
  | Found hydrogenic basis function :  1 s   0.750
  Species O                   : Missing cutoff potential type.
  Defaulting to exp(1/x)/(1-x)^2 type cutoff potential.
  Species O : No 'logarithmic' tag. Using default grid for free atom:
  | Default logarithmic grid data [bohr] : 0.1000E-03 0.1000E+03 0.1012E+01
  Species O : On-site basis accuracy parameter (for Gram-Schmidt orthonormalisation) not specified.
  Using default value basis_acc =  0.1000000E-03.
  Species O                   : Using default innermost maximum threshold i_radial=  2 for radial functions.
  Species O                   : Default cutoff onset for free atom density etc. : 0.40000000E+01 AA.
  Species O                   : Basic radial grid will be enhanced according to radial_multiplier =   2, to contain    73 grid points.
  Forces will be computed.
  Cleaning forces before final output.
  Dipole moment will be written out.
 
  Finished reading input file 'control.in'. Consistency checks are next.
 
  Target number of points in a grid batch is not set. Defaulting to  100
  Method for grid partitioning is not set. Defaulting to parallel hash+maxmin partitioning.
  Batch size limit is not set. Defaulting to    200
  By default, will store active basis functions for each batch.
  If in need of memory, prune_basis_once .false. can be used to disable this option.
  communication_type for Hartree potential was not specified.
  Defaulting to calc_hartree .
  Defaulting to Pulay charge density mixer.
  Pulay mixer: Number of relevant iterations not set.
  Defaulting to    8 iterations.
  Pulay mixer: Number of initial linear mixing iterations not set.
  Defaulting to    0 iterations.
  Work space size for distributed Hartree potential not set.
  Defaulting to   0.200000E+03 MB.
  Mixing parameter for charge density mixing has not been set.
  Using default: charge_mix_param =     0.2000.
  Algorithm-dependent basis array size parameters:
  | n_max_pulay                         :        8
  Geometry relaxation not requested: no relaxation will be performed.
  Force calculation: scf convergence accuracy of forces not set.
  Defaulting to  0.1000E-03 eV/A.
  Handling of forces: Unphysical translation and rotation will be removed from forces.
  No accuracy limit for integral partition fn. given. Defaulting to  0.1000E-14.
  No threshold value for u(r) in integrations given. Defaulting to  0.1000E-05.
  No occupation type (smearing scheme) given. Defaulting to Gaussian broadening, width =  0.1000E-01 eV.
  No accuracy for occupation numbers given. Defaulting to  0.1000E-07.
  No threshold value for occupation numbers given. Defaulting to  0.0000E+00.
  No accuracy for fermi level given. Defaulting to  0.1000E-19.
  Maximum # of iterations to find E_F not set. Defaulting to  200.
  Preferred method for the eigenvalue solver ('KS_method') not specified in 'control.in'.
  Calling blacs routine to test compilation state
  The best choice would be 'elpa', but your version of FHI-aims is compiled without scalapack support.
  Defaulting to 'lapack_fast' instead (serial solution, time will not improve with more CPUs).
  Will not use alltoall communication since running on < 1024 CPUs.
  Threshold for basis singularities not set.
  Default threshold for basis singularities:  0.1000E-04
  partition_type (choice of integration weights) for integrals was not specified.
  | Using a version of the partition function of Stratmann and coworkers ('stratmann_smoother').
  | At each grid point, the set of atoms used to build the partition table is smoothly restricted to
  | only those atoms whose free-atom density would be non-zero at that grid point.
  Partitioning for Hartree potential was not defined. Using partition_type for integrals.
  | Adjusted default value of keyword multip_moments_threshold to:       0.10000000E-11
  | This value may affect high angular momentum components of the Hartree potential in periodic systems.
  No q(lm)/r^(l+1) cutoff set for long-range Hartree potential.
  | Using default value of  0.100000E-09 .
  | Verify using the multipole_threshold keyword.
  Defaulting to new monopole extrapolation.
  Density update method: automatic selection selected.
------------------------------------------------------------


------------------------------------------------------------
          Reading geometry description geometry.in.
------------------------------------------------------------
  Input structure read successfully.
  The structure contains        2 atoms,  and a total of         16.000 electrons.

  Input geometry:
  | No unit cell requested.
  | Atomic structure:
  |       Atom                x [A]            y [A]            z [A]
  |    1: Species O              0.000000         0.000000         0.039859
  |    2: Species O              0.000000         0.000000         1.165141
  |

  | The smallest distance between any two atoms is         1.12528160 AA.
  |
  | The first atom of this pair is atom number                      1 .
  | The second atom of this pair is atom number                     2 .

  Number of empty states per atom not set in control.in - providing a guess from actual geometry.
  | Total number of empty states used during s.c.f. cycle:        6
  If you use a very high smearing, use empty_states (per atom!) in control.in to increase this value.

  Structure-dependent array size parameters: 
  | Maximum number of distinct radial functions  :       11
  | Maximum number of basis functions            :       78
  | Number of Kohn-Sham states (occupied + empty):       14
------------------------------------------------------------

------------------------------------------------------------
          Preparing all fixed parts of the calculation.
------------------------------------------------------------
  Determining machine precision:
    2.225073858507201E-308
  Setting up grids for atomic and cluster calculations.

  Creating wave function, potential, and density for free atoms.

  Species: O

  List of occupied orbitals and eigenvalues:
    n    l              occ      energy [Ha]    energy [eV]
    1    0           2.0000       -18.898576      -514.2564
    2    0           2.0000        -0.878795       -23.9132
    2    1           4.0000        -0.332075        -9.0362

  Creating fixed part of basis set: Ionic, confined, hydrogenic.
 
  O                    hydrogenic:
 
  List of hydrogenic basis orbitals: 
    n    l      effective z      eigenvalue [eV]  inner max. [A]     outer max. [A]     outer radius [A]   
    2    1         1.800000       -11.0118           1.178562           1.178562           5.432602
    3    2         7.600000       -87.3183           0.624125           0.624125           4.634338
    3    0         6.400000       -61.9210           0.061167           1.081902           5.110480
    4    3        11.600000      -114.4239           0.731631           0.731631           4.522403
    3    1         6.200000       -58.1114           0.255680           1.030270           5.110480
    3    2         5.600000       -47.4083           0.847233           0.847233           5.173339
    5    4        17.600000      -168.5800           0.749740           0.749740           4.051222
    1    0         0.750000        -7.6499           0.705284           0.705284           5.366593
 

  Adding cutoff potential to free-atom effective potential.
  Creating atomic-like basis functions for current effective potential.

  Species O                   :

  List of atomic basis orbitals and eigenvalues:
    n    l      energy [Ha]    energy [eV]    outer radius [A]
    1    0       -18.898576      -514.2564       1.415765
    2    0        -0.878795       -23.9132       5.048385
    2    1        -0.332075        -9.0362       5.301386

  Assembling full basis from fixed parts.
  | Species O :   atomic orbital   1 s accepted.
  | Species O :   atomic orbital   2 s accepted.
  | Species O :    hydro orbital   3 s accepted.
  | Species O :    hydro orbital   1 s accepted.
  | Species O :   atomic orbital   2 p accepted.
  | Species O :    hydro orbital   2 p accepted.
  | Species O :    hydro orbital   3 p accepted.
  | Species O :    hydro orbital   3 d accepted.
  | Species O :    hydro orbital   3 d accepted.
  | Species O :    hydro orbital   4 f accepted.
  | Species O :    hydro orbital   5 g accepted.
 
  Basis size parameters after reduction:
  | Total number of radial functions:       11
  | Total number of basis functions :       78
 
  Testing on-site integration grid accuracy.
  |  Species  Function  <phi|h_atom|phi> (log., in eV)  <phi|h_atom|phi> (rad., in eV)
           1        1               -514.2564144315               -514.2564099626
           1        2                -23.9132357102                -23.9132356433
           1        3                 17.5398579759                 17.5398338425
           1        4                 14.5207278950                 14.5207740449
           1        5                 -9.0362392718                 -9.0362394845
           1        6                  7.9056275927                  7.9056237490
           1        7                 33.4201658992                 33.4201612015
           1        8                 45.8231952720                 45.8231953152
           1        9                 52.1937595491                 52.1937593440
           1       10                 85.4062894308                 85.4062894578
           1       11                142.0975701139                142.0975701391

  Preparing densities etc. for the partition functions (integrals / Hartree potential).

  Preparations completed.
  max(cpu_time)          :      0.142 s.
  Wall clock time (cpu1) :      0.161 s.
------------------------------------------------------------

------------------------------------------------------------
          Begin self-consistency loop: Initialization.

          Date     :  20190722, Time     :  143610.910
------------------------------------------------------------

  Initializing index lists of integration centers etc. from given atomic structure:
  | Number of centers in hartree potential         :         2
  | Number of centers in hartree multipole         :         2
  | Number of centers in electron density summation:         2
  | Number of centers in basis integrals           :         2
  | Number of centers in integrals                 :         2
  | Number of centers in hamiltonian               :         2
  Partitioning the integration grid into batches with parallel hashing+maxmin method.
  | Number of batches:      837
  | Maximal batch size:     118
  | Minimal batch size:      49
  | Average batch size:      63.632
  | Standard deviation of batch sizes:      18.255

  Integration load balanced across     8 MPI tasks.
  Work distribution over tasks is as follows:
  Task     0 has       6691 integration points.
  Task     1 has       6628 integration points.
  Task     2 has       6686 integration points.
  Task     3 has       6640 integration points.
  Task     4 has       6720 integration points.
  Task     5 has       6642 integration points.
  Task     6 has       6627 integration points.
  Task     7 has       6626 integration points.
  Initializing partition tables, free-atom densities, potentials, etc. across the integration grid (initialize_grid_storage).
  | initialize_grid_storage: Actual outermost partition radius vs. multipole_radius_free
  | (-- VB: in principle, multipole_radius_free should be larger, hence this output)
  | Species        1: Confinement radius =              6.000000000000000 AA, multipole_radius_free =              6.064445521808699 AA.
  | Species        1: outer_partition_radius set to              6.064445521808699 AA .
  | Original list of interatomic distances with           2 x          2 entries is created.
  | Net number of integration points:    53260
  | of which are non-zero points    :    50010
  Obtaining max. number of non-zero basis functions in each batch (get_n_compute_maxes).
  | Maximal number of non-zero basis functions:       78 in task     0
  | Maximal number of non-zero basis functions:       78 in task     1
  | Maximal number of non-zero basis functions:       78 in task     2
  | Maximal number of non-zero basis functions:       78 in task     3
  | Maximal number of non-zero basis functions:       78 in task     4
  | Maximal number of non-zero basis functions:       78 in task     5
  | Maximal number of non-zero basis functions:       78 in task     6
  | Maximal number of non-zero basis functions:       78 in task     7
  Selecting the method for density update.
  Loop over occupied states selected for charge density update.
  Integrating Hamiltonian matrix: batch-based integration.
  Time summed over all CPUs for integration: real work        0.174 s, elapsed        0.181 s
  Integrating overlap matrix.
  Time summed over all CPUs for integration: real work        0.062 s, elapsed        0.064 s

  Updating Kohn-Sham eigenvalues, eigenvectors, occupation numbers, and Fermi level.
  Solving generalized eigenproblem
  Updating Kohn-Sham eigenvalues and eigenfunctions.
  Transforming overlap matrix and checking for singularities.
  Overlap matrix is nonsingular:
  | Lowest eigenvalue:  0.187908E-03
  Solving real generalised eigenvalue problem by standard LAPACK (fast)
  Determining occupation numbers for Kohn-Sham eigenstates.
  | Chemical potential (Fermi level) in eV                 : -.60606582E+01
  | Error in electron count due to remaining E_F inaccuracy: 0.14624391E-09
  | Maximum occupation number of highest empty state:  0.00E+00

  Writing Kohn-Sham eigenvalues.

  State    Occupation    Eigenvalue [Ha]    Eigenvalue [eV]
      1       2.00000         -18.952492         -515.72355
      2       2.00000         -18.952282         -515.71783
      3       2.00000          -1.276154          -34.72591
      4       2.00000          -0.749652          -20.39908
      5       2.00000          -0.542383          -14.75900
      6       2.00000          -0.526145          -14.31713
      7       2.00000          -0.526145          -14.31713
      8       1.00000          -0.222725           -6.06066
      9       1.00000          -0.222725           -6.06066
     10       0.00000           0.089812            2.44392
     11       0.00000           0.095111            2.58810
     12       0.00000           0.127619            3.47268
     13       0.00000           0.127619            3.47268
     14       0.00000           0.202118            5.49990

  Highest occupied state (VBM) at     -6.06065822 eV
  | Occupation number:      1.00000000

  Lowest unoccupied state (CBM) at     2.44391995 eV
  | Occupation number:      0.00000000

  Overall HOMO-LUMO gap:      8.50457817 eV.
  Calculating total energy contributions from superposition of free atom densities.

  Total energy components:
  | Sum of eigenvalues            :         -83.49595622 Ha       -2272.04056901 eV
  | XC energy correction          :         -16.81893162 Ha        -457.66641523 eV
  | XC potential correction       :          21.62474858 Ha         588.43934822 eV
  | Free-atom electrostatic energy:         -71.52330930 Ha       -1946.24827011 eV
  | Hartree energy correction     :           0.00000000 Ha           0.00000000 eV
  | Entropy correction            :          -0.00020734 Ha          -0.00564190 eV
  | ---------------------------
  | Total energy                  :        -150.21344857 Ha       -4087.51590614 eV
  | Total energy, T -> 0          :        -150.21365591 Ha       -4087.52154803 eV  <-- do not rely on this value for anything but (periodic) metals
  | Electronic free energy        :        -150.21386324 Ha       -4087.52718993 eV

  Derived energy quantities:
  | Kinetic energy                :         149.91505962 Ha        4079.39632966 eV
  | Electrostatic energy          :        -283.30957657 Ha       -7709.24582056 eV
  | Energy correction for multipole
  | error in Hartree potential    :           0.00000000 Ha           0.00000000 eV
  | Sum of eigenvalues per atom                           :       -1136.02028450 eV
  | Total energy (T->0) per atom                          :       -2043.76077402 eV  <-- do not rely on this value for anything but (periodic) metals
  | Electronic free energy per atom                       :       -2043.76359496 eV
  Initialize hartree_potential_storage
  Max. number of atoms included in rho_multipole:            2

  End scf initialization - timings             :  max(cpu_time)    wall_clock(cpu1)
  | Time for scf. initialization               :        0.091 s           0.089 s
  | Boundary condition initialization          :        0.001 s           0.000 s
  | Integration                                :        0.032 s           0.032 s
  | Solution of K.-S. eqns.                    :        0.008 s           0.008 s
  | Grid partitioning                          :        0.017 s           0.016 s
  | Preloading free-atom quantities on grid    :        0.017 s           0.016 s
  | Free-atom superposition energy             :        0.005 s           0.005 s
  | Total energy evaluation                    :        0.001 s           0.002 s
------------------------------------------------------------

------------------------------------------------------------
          Begin self-consistency iteration #    1

  Date     :  20190722, Time     :  143611.002
------------------------------------------------------------
  Evaluating new KS density.
  Integration grid: deviation in total charge (<rho> - N_e) =   1.462652E-10
  Pulay mixing of updated and previous charge densities.

  Evaluating partitioned Hartree potential by multipole expansion.
  | Analytical far-field extrapolation by fixed multipoles:
  | Hartree multipole sum: apparent total charge =  -0.256862E-07
  Summing up the Hartree potential.
  Time summed over all CPUs for potential: real work        0.108 s, elapsed        0.111 s
  | RMS charge density error from multipole expansion :   0.118807E-03

  Integrating Hamiltonian matrix: batch-based integration.
  Time summed over all CPUs for integration: real work        0.169 s, elapsed        0.175 s

  Updating Kohn-Sham eigenvalues, eigenvectors, occupation numbers, and Fermi level.
  Solving generalized eigenproblem
  Updating Kohn-Sham eigenvalues and eigenfunctions.
  Solving real generalised eigenvalue problem by standard LAPACK (fast)
  Determining occupation numbers for Kohn-Sham eigenstates.
  | Chemical potential (Fermi level) in eV                 : -.56999382E+01
  | Error in electron count due to remaining E_F inaccuracy: -.49436011E-11
  | Maximum occupation number of highest empty state:  0.00E+00

  Writing Kohn-Sham eigenvalues.

  State    Occupation    Eigenvalue [Ha]    Eigenvalue [eV]
      1       2.00000         -18.925369         -514.98549
      2       2.00000         -18.925158         -514.97974
      3       2.00000          -1.269381          -34.54160
      4       2.00000          -0.732855          -19.94200
      5       2.00000          -0.525353          -14.29559
      6       2.00000          -0.516031          -14.04192
      7       2.00000          -0.516031          -14.04192
      8       1.00000          -0.209469           -5.69994
      9       1.00000          -0.209469           -5.69994
     10       0.00000           0.092749            2.52382
     11       0.00000           0.098475            2.67964
     12       0.00000           0.129557            3.52543
     13       0.00000           0.129557            3.52543
     14       0.00000           0.204501            5.56475

  Highest occupied state (VBM) at     -5.69993818 eV
  | Occupation number:      1.00000000

  Lowest unoccupied state (CBM) at    -5.69993818 eV
  | Occupation number:      1.00000000

  Overall HOMO-LUMO gap:      0.00000000 eV.

  Total energy components:
  | Sum of eigenvalues            :         -83.23929197 Ha       -2265.05637926 eV
  | XC energy correction          :         -16.85459796 Ha        -458.63694581 eV
  | XC potential correction       :          21.67123213 Ha         589.70423013 eV
  | Free-atom electrostatic energy:         -71.52330930 Ha       -1946.24827011 eV
  | Hartree energy correction     :          -0.26113872 Ha          -7.10594614 eV
  | Entropy correction            :          -0.00020734 Ha          -0.00564190 eV
  | ---------------------------
  | Total energy                  :        -150.20710582 Ha       -4087.34331118 eV
  | Total energy, T -> 0          :        -150.20731316 Ha       -4087.34895308 eV  <-- do not rely on this value for anything but (periodic) metals
  | Electronic free energy        :        -150.20752049 Ha       -4087.35459497 eV

  Derived energy quantities:
  | Kinetic energy                :         150.11614644 Ha        4084.86818042 eV
  | Electrostatic energy          :        -283.46865430 Ha       -7713.57454579 eV
  | Energy correction for multipole
  | error in Hartree potential    :          -0.00014987 Ha          -0.00407830 eV
  | Sum of eigenvalues per atom                           :       -1132.52818963 eV
  | Total energy (T->0) per atom                          :       -2043.67447654 eV  <-- do not rely on this value for anything but (periodic) metals
  | Electronic free energy per atom                       :       -2043.67729749 eV

  Self-consistency convergence accuracy:
  | Change of charge density      :  0.1773E+00
  | Change of sum of eigenvalues  :  0.6984E+01 eV
  | Change of total energy        :  0.1726E+00 eV

  End self-consistency iteration #     1       :  max(cpu_time)    wall_clock(cpu1)
  | Time for this iteration                    :        0.065 s           0.064 s
  | Charge density update                      :        0.018 s           0.016 s
  | Density mixing                             :        0.001 s           0.001 s
  | Hartree multipole update                   :        0.004 s           0.003 s
  | Hartree multipole summation                :        0.015 s           0.015 s
  | Integration                                :        0.023 s           0.023 s
  | Solution of K.-S. eqns.                    :        0.001 s           0.001 s
  | Total energy evaluation                    :        0.000 s           0.001 s
------------------------------------------------------------

------------------------------------------------------------
          Begin self-consistency iteration #    2

  Date     :  20190722, Time     :  143611.068
------------------------------------------------------------
  Evaluating new KS density.
  Integration grid: deviation in total charge (<rho> - N_e) =  -4.966694E-12
  Pulay mixing of updated and previous charge densities.

  Evaluating partitioned Hartree potential by multipole expansion.
  | Analytical far-field extrapolation by fixed multipoles:
  | Hartree multipole sum: apparent total charge =  -0.470630E-07
  Summing up the Hartree potential.
  Time summed over all CPUs for potential: real work        0.107 s, elapsed        0.108 s
  | RMS charge density error from multipole expansion :   0.434819E-03

  Integrating Hamiltonian matrix: batch-based integration.
  Time summed over all CPUs for integration: real work        0.166 s, elapsed        0.171 s

  Updating Kohn-Sham eigenvalues, eigenvectors, occupation numbers, and Fermi level.
  Solving generalized eigenproblem
  Updating Kohn-Sham eigenvalues and eigenfunctions.
  Solving real generalised eigenvalue problem by standard LAPACK (fast)
  Determining occupation numbers for Kohn-Sham eigenstates.
  | Chemical potential (Fermi level) in eV                 : -.49828671E+01
  | Error in electron count due to remaining E_F inaccuracy: 0.00000000E+00
  | Maximum occupation number of highest empty state:  0.00E+00

  Highest occupied state (VBM) at     -4.98286712 eV
  | Occupation number:      1.00000000

  Lowest unoccupied state (CBM) at    -4.98286712 eV
  | Occupation number:      1.00000000

  Overall HOMO-LUMO gap:      0.00000000 eV.

  Total energy components:
  | Sum of eigenvalues            :         -82.74087129 Ha       -2251.49366249 eV
  | XC energy correction          :         -16.92827344 Ha        -460.64175762 eV
  | XC potential correction       :          21.76715892 Ha         592.31453080 eV
  | Free-atom electrostatic energy:         -71.52330930 Ha       -1946.24827011 eV
  | Hartree energy correction     :          -0.77681045 Ha         -21.13808795 eV
  | Entropy correction            :          -0.00020734 Ha          -0.00564190 eV
  | ---------------------------
  | Total energy                  :        -150.20210557 Ha       -4087.20724738 eV
  | Total energy, T -> 0          :        -150.20231291 Ha       -4087.21288927 eV  <-- do not rely on this value for anything but (periodic) metals
  | Electronic free energy        :        -150.20252024 Ha       -4087.21853117 eV

  Derived energy quantities:
  | Kinetic energy                :         150.44378982 Ha        4093.78381042 eV
  | Electrostatic energy          :        -283.71762194 Ha       -7720.34930017 eV
  | Energy correction for multipole
  | error in Hartree potential    :          -0.00049757 Ha          -0.01353947 eV
  | Sum of eigenvalues per atom                           :       -1125.74683124 eV
  | Total energy (T->0) per atom                          :       -2043.60644464 eV  <-- do not rely on this value for anything but (periodic) metals
  | Electronic free energy per atom                       :       -2043.60926558 eV

  Self-consistency convergence accuracy:
  | Change of charge density      :  0.1269E+00
  | Change of sum of eigenvalues  :  0.1356E+02 eV
  | Change of total energy        :  0.1361E+00 eV

  End self-consistency iteration #     2       :  max(cpu_time)    wall_clock(cpu1)
  | Time for this iteration                    :        0.059 s           0.058 s
  | Charge density update                      :        0.016 s           0.015 s
  | Density mixing                             :        0.001 s           0.001 s
  | Hartree multipole update                   :        0.004 s           0.003 s
  | Hartree multipole summation                :        0.015 s           0.015 s
  | Integration                                :        0.022 s           0.022 s
  | Solution of K.-S. eqns.                    :        0.001 s           0.001 s
  | Total energy evaluation                    :        0.000 s           0.001 s
------------------------------------------------------------

------------------------------------------------------------
          Begin self-consistency iteration #    3

  Date     :  20190722, Time     :  143611.128
------------------------------------------------------------
  Evaluating new KS density.
  Integration grid: deviation in total charge (<rho> - N_e) =   2.842171E-14
  Pulay mixing of updated and previous charge densities.

  Evaluating partitioned Hartree potential by multipole expansion.
  | Analytical far-field extrapolation by fixed multipoles:
  | Hartree multipole sum: apparent total charge =  -0.107505E-06
  Summing up the Hartree potential.
  Time summed over all CPUs for potential: real work        0.107 s, elapsed        0.109 s
  | RMS charge density error from multipole expansion :   0.600036E-03

  Integrating Hamiltonian matrix: batch-based integration.
  Time summed over all CPUs for integration: real work        0.167 s, elapsed        0.173 s

  Updating Kohn-Sham eigenvalues, eigenvectors, occupation numbers, and Fermi level.
  Solving generalized eigenproblem
  Updating Kohn-Sham eigenvalues and eigenfunctions.
  Solving real generalised eigenvalue problem by standard LAPACK (fast)
  Determining occupation numbers for Kohn-Sham eigenstates.
  | Chemical potential (Fermi level) in eV                 : -.51626361E+01
  | Error in electron count due to remaining E_F inaccuracy: 0.00000000E+00
  | Maximum occupation number of highest empty state:  0.00E+00

  Highest occupied state (VBM) at     -5.16263610 eV
  | Occupation number:      1.00000004

  Lowest unoccupied state (CBM) at    -5.16263610 eV
  | Occupation number:      0.99999996

  Overall HOMO-LUMO gap:      0.00000000 eV.

  Total energy components:
  | Sum of eigenvalues            :         -82.90511067 Ha       -2255.96284346 eV
  | XC energy correction          :         -16.90923218 Ha        -460.12361856 eV
  | XC potential correction       :          21.74213423 Ha         591.63357425 eV
  | Free-atom electrostatic energy:         -71.52330930 Ha       -1946.24827011 eV
  | Hartree energy correction     :          -0.60652788 Ha         -16.50446335 eV
  | Entropy correction            :          -0.00020734 Ha          -0.00564190 eV
  | ---------------------------
  | Total energy                  :        -150.20204581 Ha       -4087.20562123 eV
  | Total energy, T -> 0          :        -150.20225315 Ha       -4087.21126312 eV  <-- do not rely on this value for anything but (periodic) metals
  | Electronic free energy        :        -150.20246048 Ha       -4087.21690502 eV

  Derived energy quantities:
  | Kinetic energy                :         150.17864468 Ha        4086.56884413 eV
  | Electrostatic energy          :        -283.47145831 Ha       -7713.65084679 eV
  | Energy correction for multipole
  | error in Hartree potential    :          -0.00055643 Ha          -0.01514118 eV
  | Sum of eigenvalues per atom                           :       -1127.98142173 eV
  | Total energy (T->0) per atom                          :       -2043.60563156 eV  <-- do not rely on this value for anything but (periodic) metals
  | Electronic free energy per atom                       :       -2043.60845251 eV

  Self-consistency convergence accuracy:
  | Change of charge density      :  0.3284E-01
  | Change of sum of eigenvalues  : -0.4469E+01 eV
  | Change of total energy        :  0.1626E-02 eV

  End self-consistency iteration #     3       :  max(cpu_time)    wall_clock(cpu1)
  | Time for this iteration                    :        0.058 s           0.058 s
  | Charge density update                      :        0.016 s           0.015 s
  | Density mixing                             :        0.001 s           0.001 s
  | Hartree multipole update                   :        0.004 s           0.004 s
  | Hartree multipole summation                :        0.015 s           0.014 s
  | Integration                                :        0.022 s           0.022 s
  | Solution of K.-S. eqns.                    :        0.001 s           0.001 s
  | Total energy evaluation                    :        0.000 s           0.001 s
------------------------------------------------------------

------------------------------------------------------------
          Begin self-consistency iteration #    4

  Date     :  20190722, Time     :  143611.188
------------------------------------------------------------
  Evaluating new KS density.
  Integration grid: deviation in total charge (<rho> - N_e) =   3.552714E-15
  Pulay mixing of updated and previous charge densities.

  Evaluating partitioned Hartree potential by multipole expansion.
  | Analytical far-field extrapolation by fixed multipoles:
  | Hartree multipole sum: apparent total charge =  -0.106634E-06
  Summing up the Hartree potential.
  Time summed over all CPUs for potential: real work        0.106 s, elapsed        0.108 s
  | RMS charge density error from multipole expansion :   0.632913E-03

  Integrating Hamiltonian matrix: batch-based integration.
  Time summed over all CPUs for integration: real work        0.167 s, elapsed        0.173 s

  Updating Kohn-Sham eigenvalues, eigenvectors, occupation numbers, and Fermi level.
  Solving generalized eigenproblem
  Updating Kohn-Sham eigenvalues and eigenfunctions.
  Solving real generalised eigenvalue problem by standard LAPACK (fast)
  Determining occupation numbers for Kohn-Sham eigenstates.
  | Chemical potential (Fermi level) in eV                 : -.50682847E+01
  | Error in electron count due to remaining E_F inaccuracy: -.95654151E-09
  | Maximum occupation number of highest empty state:  0.00E+00

  Highest occupied state (VBM) at     -5.06828468 eV
  | Occupation number:      1.00000145

  Lowest unoccupied state (CBM) at    -5.06828465 eV
  | Occupation number:      0.99999854

  Overall HOMO-LUMO gap:      0.00000003 eV.

  Total energy components:
  | Sum of eigenvalues            :         -82.83359883 Ha       -2254.01690722 eV
  | XC energy correction          :         -16.91747178 Ha        -460.34782945 eV
  | XC potential correction       :          21.75289402 Ha         591.92636313 eV
  | Free-atom electrostatic energy:         -71.52330930 Ha       -1946.24827011 eV
  | Hartree energy correction     :          -0.68054353 Ha         -18.51853177 eV
  | Entropy correction            :          -0.00020734 Ha          -0.00564190 eV
  | ---------------------------
  | Total energy                  :        -150.20202943 Ha       -4087.20517543 eV
  | Total energy, T -> 0          :        -150.20223676 Ha       -4087.21081733 eV  <-- do not rely on this value for anything but (periodic) metals
  | Electronic free energy        :        -150.20244410 Ha       -4087.21645922 eV

  Derived energy quantities:
  | Kinetic energy                :         150.22745234 Ha        4087.89696799 eV
  | Electrostatic energy          :        -283.51200998 Ha       -7714.75431397 eV
  | Energy correction for multipole
  | error in Hartree potential    :          -0.00059041 Ha          -0.01606584 eV
  | Sum of eigenvalues per atom                           :       -1127.00845361 eV
  | Total energy (T->0) per atom                          :       -2043.60540866 eV  <-- do not rely on this value for anything but (periodic) metals
  | Electronic free energy per atom                       :       -2043.60822961 eV

  Self-consistency convergence accuracy:
  | Change of charge density      :  0.7491E-02
  | Change of sum of eigenvalues  :  0.1946E+01 eV
  | Change of total energy        :  0.4458E-03 eV

  End self-consistency iteration #     4       :  max(cpu_time)    wall_clock(cpu1)
  | Time for this iteration                    :        0.058 s           0.057 s
  | Charge density update                      :        0.015 s           0.014 s
  | Density mixing                             :        0.001 s           0.001 s
  | Hartree multipole update                   :        0.003 s           0.003 s
  | Hartree multipole summation                :        0.015 s           0.014 s
  | Integration                                :        0.022 s           0.022 s
  | Solution of K.-S. eqns.                    :        0.001 s           0.001 s
  | Total energy evaluation                    :        0.000 s           0.000 s
------------------------------------------------------------

------------------------------------------------------------
          Begin self-consistency iteration #    5

  Date     :  20190722, Time     :  143611.248
------------------------------------------------------------
  Evaluating new KS density.
  Integration grid: deviation in total charge (<rho> - N_e) =  -9.565948E-10
  Pulay mixing of updated and previous charge densities.

  Evaluating partitioned Hartree potential by multipole expansion.
  | Analytical far-field extrapolation by fixed multipoles:
  | Hartree multipole sum: apparent total charge =  -0.107163E-06
  Summing up the Hartree potential.
  Time summed over all CPUs for potential: real work        0.108 s, elapsed        0.112 s
  | RMS charge density error from multipole expansion :   0.640204E-03

  Integrating Hamiltonian matrix: batch-based integration.
  Time summed over all CPUs for integration: real work        0.168 s, elapsed        0.173 s

  Updating Kohn-Sham eigenvalues, eigenvectors, occupation numbers, and Fermi level.
  Solving generalized eigenproblem
  Updating Kohn-Sham eigenvalues and eigenfunctions.
  Solving real generalised eigenvalue problem by standard LAPACK (fast)
  Determining occupation numbers for Kohn-Sham eigenstates.
  | Chemical potential (Fermi level) in eV                 : -.51066312E+01
  | Error in electron count due to remaining E_F inaccuracy: 0.00000000E+00
  | Maximum occupation number of highest empty state:  0.00E+00

  Highest occupied state (VBM) at     -5.10663138 eV
  | Occupation number:      1.00001772

  Lowest unoccupied state (CBM) at    -5.10663107 eV
  | Occupation number:      0.99998228

  Overall HOMO-LUMO gap:      0.00000031 eV.

  Total energy components:
  | Sum of eigenvalues            :         -82.86357193 Ha       -2254.83251672 eV
  | XC energy correction          :         -16.91330722 Ha        -460.23450599 eV
  | XC potential correction       :          21.74745115 Ha         591.77825522 eV
  | Free-atom electrostatic energy:         -71.52330930 Ha       -1946.24827011 eV
  | Hartree energy correction     :          -0.64927988 Ha         -17.66780454 eV
  | Entropy correction            :          -0.00020734 Ha          -0.00564190 eV
  | ---------------------------
  | Total energy                  :        -150.20201718 Ha       -4087.20484215 eV
  | Total energy, T -> 0          :        -150.20222452 Ha       -4087.21048404 eV  <-- do not rely on this value for anything but (periodic) metals
  | Electronic free energy        :        -150.20243185 Ha       -4087.21612594 eV

  Derived energy quantities:
  | Kinetic energy                :         150.19350440 Ha        4086.97319771 eV
  | Electrostatic energy          :        -283.48221436 Ha       -7713.94353387 eV
  | Energy correction for multipole
  | error in Hartree potential    :          -0.00058565 Ha          -0.01593632 eV
  | Sum of eigenvalues per atom                           :       -1127.41625836 eV
  | Total energy (T->0) per atom                          :       -2043.60524202 eV  <-- do not rely on this value for anything but (periodic) metals
  | Electronic free energy per atom                       :       -2043.60806297 eV

  Self-consistency convergence accuracy:
  | Change of charge density      :  0.4827E-02
  | Change of sum of eigenvalues  : -0.8156E+00 eV
  | Change of total energy        :  0.3333E-03 eV

  End self-consistency iteration #     5       :  max(cpu_time)    wall_clock(cpu1)
  | Time for this iteration                    :        0.059 s           0.058 s
  | Charge density update                      :        0.016 s           0.015 s
  | Density mixing                             :        0.001 s           0.001 s
  | Hartree multipole update                   :        0.003 s           0.003 s
  | Hartree multipole summation                :        0.015 s           0.015 s
  | Integration                                :        0.022 s           0.022 s
  | Solution of K.-S. eqns.                    :        0.001 s           0.001 s
  | Total energy evaluation                    :        0.000 s           0.001 s
------------------------------------------------------------

------------------------------------------------------------
          Begin self-consistency iteration #    6

  Date     :  20190722, Time     :  143611.309
------------------------------------------------------------
  Evaluating new KS density.
  Integration grid: deviation in total charge (<rho> - N_e) =  -3.552714E-14
  Pulay mixing of updated and previous charge densities.

  Evaluating partitioned Hartree potential by multipole expansion.
  | Analytical far-field extrapolation by fixed multipoles:
  | Hartree multipole sum: apparent total charge =  -0.105731E-06
  Summing up the Hartree potential.
  Time summed over all CPUs for potential: real work        0.108 s, elapsed        0.111 s
  | RMS charge density error from multipole expansion :   0.641495E-03

  Integrating Hamiltonian matrix: batch-based integration.
  Time summed over all CPUs for integration: real work        0.168 s, elapsed        0.173 s

  Updating Kohn-Sham eigenvalues, eigenvectors, occupation numbers, and Fermi level.
  Solving generalized eigenproblem
  Updating Kohn-Sham eigenvalues and eigenfunctions.
  Solving real generalised eigenvalue problem by standard LAPACK (fast)
  Determining occupation numbers for Kohn-Sham eigenstates.
  | Chemical potential (Fermi level) in eV                 : -.51088698E+01
  | Error in electron count due to remaining E_F inaccuracy: 0.34106051E-12
  | Maximum occupation number of highest empty state:  0.00E+00

  Highest occupied state (VBM) at     -5.10887918 eV
  | Occupation number:      1.00105365

  Lowest unoccupied state (CBM) at    -5.10886050 eV
  | Occupation number:      0.99894635

  Overall HOMO-LUMO gap:      0.00001868 eV.

  Total energy components:
  | Sum of eigenvalues            :         -82.86489002 Ha       -2254.86838381 eV
  | XC energy correction          :         -16.91325424 Ha        -460.23306426 eV
  | XC potential correction       :          21.74737313 Ha         591.77613218 eV
  | Free-atom electrostatic energy:         -71.52330930 Ha       -1946.24827011 eV
  | Hartree energy correction     :          -0.64793673 Ha         -17.63125562 eV
  | Entropy correction            :          -0.00020734 Ha          -0.00564189 eV
  | ---------------------------
  | Total energy                  :        -150.20201716 Ha       -4087.20484162 eV
  | Total energy, T -> 0          :        -150.20222450 Ha       -4087.21048351 eV  <-- do not rely on this value for anything but (periodic) metals
  | Electronic free energy        :        -150.20243183 Ha       -4087.21612540 eV

  Derived energy quantities:
  | Kinetic energy                :         150.19537903 Ha        4087.02420889 eV
  | Electrostatic energy          :        -283.48414195 Ha       -7713.99598625 eV
  | Energy correction for multipole
  | error in Hartree potential    :          -0.00058628 Ha          -0.01595346 eV
  | Sum of eigenvalues per atom                           :       -1127.43419191 eV
  | Total energy (T->0) per atom                          :       -2043.60524176 eV  <-- do not rely on this value for anything but (periodic) metals
  | Electronic free energy per atom                       :       -2043.60806270 eV

  Self-consistency convergence accuracy:
  | Change of charge density      :  0.2636E-03
  | Change of sum of eigenvalues  : -0.3587E-01 eV
  | Change of total energy        :  0.5265E-06 eV

  End self-consistency iteration #     6       :  max(cpu_time)    wall_clock(cpu1)
  | Time for this iteration                    :        0.060 s           0.059 s
  | Charge density update                      :        0.017 s           0.016 s
  | Density mixing                             :        0.001 s           0.001 s
  | Hartree multipole update                   :        0.004 s           0.003 s
  | Hartree multipole summation                :        0.015 s           0.015 s
  | Integration                                :        0.022 s           0.022 s
  | Solution of K.-S. eqns.                    :        0.001 s           0.001 s
  | Total energy evaluation                    :        0.000 s           0.001 s
------------------------------------------------------------

------------------------------------------------------------
          Begin self-consistency iteration #    7

  Date     :  20190722, Time     :  143611.371
------------------------------------------------------------
  Evaluating new KS density.
  Integration grid: deviation in total charge (<rho> - N_e) =   3.730349E-13
  Pulay mixing of updated and previous charge densities.

  Evaluating partitioned Hartree potential by multipole expansion.
  | Analytical far-field extrapolation by fixed multipoles:
  | Hartree multipole sum: apparent total charge =  -0.105720E-06
  Summing up the Hartree potential.
  Time summed over all CPUs for potential: real work        0.108 s, elapsed        0.111 s
  | RMS charge density error from multipole expansion :   0.641505E-03

  Integrating Hamiltonian matrix: batch-based integration.
  Time summed over all CPUs for integration: real work        0.168 s, elapsed        0.173 s

  Updating Kohn-Sham eigenvalues, eigenvectors, occupation numbers, and Fermi level.
  Solving generalized eigenproblem
  Updating Kohn-Sham eigenvalues and eigenfunctions.
  Solving real generalised eigenvalue problem by standard LAPACK (fast)
  Determining occupation numbers for Kohn-Sham eigenstates.
  | Chemical potential (Fermi level) in eV                 : -.51088774E+01
  | Error in electron count due to remaining E_F inaccuracy: 0.34106051E-12
  | Maximum occupation number of highest empty state:  0.00E+00

  Highest occupied state (VBM) at     -5.10887745 eV
  | Occupation number:      1.00000956

  Lowest unoccupied state (CBM) at    -5.10887728 eV
  | Occupation number:      0.99999044

  Overall HOMO-LUMO gap:      0.00000017 eV.

  Total energy components:
  | Sum of eigenvalues            :         -82.86489247 Ha       -2254.86845066 eV
  | XC energy correction          :         -16.91325460 Ha        -460.23307409 eV
  | XC potential correction       :          21.74737354 Ha         591.77614337 eV
  | Free-atom electrostatic energy:         -71.52330930 Ha       -1946.24827011 eV
  | Hartree energy correction     :          -0.64793433 Ha         -17.63119011 eV
  | Entropy correction            :          -0.00020734 Ha          -0.00564190 eV
  | ---------------------------
  | Total energy                  :        -150.20201716 Ha       -4087.20484160 eV
  | Total energy, T -> 0          :        -150.20222450 Ha       -4087.21048349 eV  <-- do not rely on this value for anything but (periodic) metals
  | Electronic free energy        :        -150.20243183 Ha       -4087.21612539 eV

  Derived energy quantities:
  | Kinetic energy                :         150.19539949 Ha        4087.02476562 eV
  | Electrostatic energy          :        -283.48416205 Ha       -7713.99653313 eV
  | Energy correction for multipole
  | error in Hartree potential    :          -0.00058628 Ha          -0.01595362 eV
  | Sum of eigenvalues per atom                           :       -1127.43422533 eV
  | Total energy (T->0) per atom                          :       -2043.60524175 eV  <-- do not rely on this value for anything but (periodic) metals
  | Electronic free energy per atom                       :       -2043.60806269 eV

  Self-consistency convergence accuracy:
  | Change of charge density      :  0.3289E-03
  | Change of sum of eigenvalues  : -0.6685E-04 eV
  | Change of total energy        :  0.2245E-07 eV

  End self-consistency iteration #     7       :  max(cpu_time)    wall_clock(cpu1)
  | Time for this iteration                    :        0.059 s           0.058 s
  | Charge density update                      :        0.015 s           0.015 s
  | Density mixing                             :        0.002 s           0.001 s
  | Hartree multipole update                   :        0.004 s           0.003 s
  | Hartree multipole summation                :        0.015 s           0.015 s
  | Integration                                :        0.022 s           0.022 s
  | Solution of K.-S. eqns.                    :        0.001 s           0.001 s
  | Total energy evaluation                    :        0.000 s           0.000 s
------------------------------------------------------------

------------------------------------------------------------
          Begin self-consistency iteration #    8

  Date     :  20190722, Time     :  143611.432
------------------------------------------------------------
  Evaluating new KS density.
  Integration grid: deviation in total charge (<rho> - N_e) =   4.121148E-13
  Pulay mixing of updated and previous charge densities.

  Evaluating partitioned Hartree potential by multipole expansion.
  | Analytical far-field extrapolation by fixed multipoles:
  | Hartree multipole sum: apparent total charge =  -0.105730E-06
  Summing up the Hartree potential.
  Time summed over all CPUs for potential: real work        0.112 s, elapsed        0.122 s
  | RMS charge density error from multipole expansion :   0.641494E-03

  Integrating Hamiltonian matrix: batch-based integration.
  Time summed over all CPUs for integration: real work        0.171 s, elapsed        0.182 s

  Updating Kohn-Sham eigenvalues, eigenvectors, occupation numbers, and Fermi level.
  Solving generalized eigenproblem
  Updating Kohn-Sham eigenvalues and eigenfunctions.
  Solving real generalised eigenvalue problem by standard LAPACK (fast)
  Determining occupation numbers for Kohn-Sham eigenstates.
  | Chemical potential (Fermi level) in eV                 : -.51087543E+01
  | Error in electron count due to remaining E_F inaccuracy: 0.00000000E+00
  | Maximum occupation number of highest empty state:  0.00E+00

  Highest occupied state (VBM) at     -5.10875428 eV
  | Occupation number:      1.00000005

  Lowest unoccupied state (CBM) at    -5.10875428 eV
  | Occupation number:      0.99999995

  Overall HOMO-LUMO gap:      0.00000000 eV.

  Total energy components:
  | Sum of eigenvalues            :         -82.86479814 Ha       -2254.86588370 eV
  | XC energy correction          :         -16.91326349 Ha        -460.23331586 eV
  | XC potential correction       :          21.74738529 Ha         591.77646302 eV
  | Free-atom electrostatic energy:         -71.52330930 Ha       -1946.24827011 eV
  | Hartree energy correction     :          -0.64803152 Ha         -17.63383495 eV
  | Entropy correction            :          -0.00020734 Ha          -0.00564190 eV
  | ---------------------------
  | Total energy                  :        -150.20201716 Ha       -4087.20484160 eV
  | Total energy, T -> 0          :        -150.20222450 Ha       -4087.21048349 eV  <-- do not rely on this value for anything but (periodic) metals
  | Electronic free energy        :        -150.20243183 Ha       -4087.21612539 eV

  Derived energy quantities:
  | Kinetic energy                :         150.19545325 Ha        4087.02622851 eV
  | Electrostatic energy          :        -283.48420692 Ha       -7713.99775424 eV
  | Energy correction for multipole
  | error in Hartree potential    :          -0.00058629 Ha          -0.01595376 eV
  | Sum of eigenvalues per atom                           :       -1127.43294185 eV
  | Total energy (T->0) per atom                          :       -2043.60524175 eV  <-- do not rely on this value for anything but (periodic) metals
  | Electronic free energy per atom                       :       -2043.60806269 eV

  Self-consistency convergence accuracy:
  | Change of charge density      :  0.1329E-04
  | Change of sum of eigenvalues  :  0.2567E-02 eV
  | Change of total energy        :  0.1216E-08 eV

  Electronic self-consistency reached - switching on the force computation.

  End self-consistency iteration #     8       :  max(cpu_time)    wall_clock(cpu1)
  | Time for this iteration                    :        0.061 s           0.060 s
  | Charge density & force component update    :        0.015 s           0.014 s
  | Density mixing                             :        0.002 s           0.002 s
  | Hartree multipole update                   :        0.003 s           0.003 s
  | Hartree multipole summation                :        0.016 s           0.016 s
  | Integration                                :        0.024 s           0.023 s
  | Solution of K.-S. eqns.                    :        0.001 s           0.001 s
  | Total energy evaluation                    :        0.000 s           0.001 s
------------------------------------------------------------

------------------------------------------------------------
          Begin self-consistency iteration #    9

  Date     :  20190722, Time     :  143611.495
------------------------------------------------------------
  Evaluating new KS density.
  Integration grid: deviation in total charge (<rho> - N_e) =   7.105427E-15
  Pulay mixing of updated and previous charge densities.

  Evaluating partitioned Hartree potential by multipole expansion.
  | Analytical far-field extrapolation by fixed multipoles:
  | Hartree multipole sum: apparent total charge =  -0.105740E-06
  Summing up the Hartree potential.
  Time summed over all CPUs for potential: real work        0.287 s, elapsed        0.335 s
  | RMS charge density error from multipole expansion :   0.641539E-03

  Integrating Hamiltonian matrix: batch-based integration.
  Time summed over all CPUs for integration: real work        0.167 s, elapsed        0.172 s

  Updating Kohn-Sham eigenvalues, eigenvectors, occupation numbers, and Fermi level.
  Solving generalized eigenproblem
  Updating Kohn-Sham eigenvalues and eigenfunctions.
  Solving real generalised eigenvalue problem by standard LAPACK (fast)
  Determining occupation numbers for Kohn-Sham eigenstates.
  | Chemical potential (Fermi level) in eV                 : -.51087308E+01
  | Error in electron count due to remaining E_F inaccuracy: 0.85265128E-13
  | Maximum occupation number of highest empty state:  0.00E+00

  Highest occupied state (VBM) at     -5.10873084 eV
  | Occupation number:      1.00000001

  Lowest unoccupied state (CBM) at    -5.10873084 eV
  | Occupation number:      0.99999999

  Overall HOMO-LUMO gap:      0.00000000 eV.

  Total energy components:
  | Sum of eigenvalues            :         -82.86478415 Ha       -2254.86550293 eV
  | XC energy correction          :         -16.91326483 Ha        -460.23335237 eV
  | XC potential correction       :          21.74738704 Ha         591.77651065 eV
  | Free-atom electrostatic energy:         -71.52330930 Ha       -1946.24827011 eV
  | Hartree energy correction     :          -0.64804593 Ha         -17.63422684 eV
  | Entropy correction            :          -0.00020734 Ha          -0.00564190 eV
  | ---------------------------
  | Total energy                  :        -150.20201716 Ha       -4087.20484160 eV
  | Total energy, T -> 0          :        -150.20222450 Ha       -4087.21048350 eV  <-- do not rely on this value for anything but (periodic) metals
  | Electronic free energy        :        -150.20243183 Ha       -4087.21612540 eV

  Derived energy quantities:
  | Kinetic energy                :         150.19544436 Ha        4087.02598663 eV
  | Electrostatic energy          :        -283.48419669 Ha       -7713.99747586 eV
  | Energy correction for multipole
  | error in Hartree potential    :          -0.00058630 Ha          -0.01595408 eV
  | Sum of eigenvalues per atom                           :       -1127.43275146 eV
  | Total energy (T->0) per atom                          :       -2043.60524175 eV  <-- do not rely on this value for anything but (periodic) metals
  | Electronic free energy per atom                       :       -2043.60806270 eV

  atomic forces [eV/Ang]:
  -----------------------
  atom #    1
   Hellmann-Feynman              : -0.202683E-10 -0.557565E-11 -0.243151E+02
   Ionic forces                  :  0.000000E+00  0.000000E+00  0.000000E+00
   Multipole                     :  0.213583E-12  0.316817E-12  0.439691E-01
   Pulay + GGA                   :  0.000000E+00  0.000000E+00  0.000000E+00
   ----------------------------------------------------------------
   Total forces(   1)            : -0.200547E-10 -0.525883E-11 -0.242711E+02
  atom #    2
   Hellmann-Feynman              :  0.520449E-10 -0.313024E-10  0.243151E+02
   Ionic forces                  :  0.000000E+00  0.000000E+00  0.000000E+00
   Multipole                     : -0.196665E-12 -0.252459E-12 -0.439691E-01
   Pulay + GGA                   :  0.000000E+00  0.000000E+00  0.000000E+00
   ----------------------------------------------------------------
   Total forces(   2)            :  0.518482E-10 -0.315549E-10  0.242711E+02


  Self-consistency convergence accuracy:
  | Change of charge density      :  0.4464E-05
  | Change of sum of eigenvalues  :  0.3808E-03 eV
  | Change of total energy        : -0.6999E-08 eV
  | Change of forces              :  0.2427E+02 eV/A

  End self-consistency iteration #     9       :  max(cpu_time)    wall_clock(cpu1)
  | Time for this iteration                    :        0.089 s           0.088 s
  | Charge density & force component update    :        0.016 s           0.015 s
  | Density mixing                             :        0.002 s           0.002 s
  | Hartree multipole update                   :        0.004 s           0.003 s
  | Hartree multipole summation                :        0.043 s           0.043 s
  | Integration                                :        0.022 s           0.022 s
  | Solution of K.-S. eqns.                    :        0.001 s           0.001 s
  | Total energy evaluation                    :        0.001 s           0.002 s
------------------------------------------------------------

------------------------------------------------------------
          Begin self-consistency iteration #   10

  Date     :  20190722, Time     :  143611.585
------------------------------------------------------------
  Evaluating new KS density and force components.
  Integration grid: deviation in total charge (<rho> - N_e) =   1.243450E-13
  Pulay mixing of updated and previous charge densities.

  Evaluating partitioned Hartree potential by multipole expansion.
  | Analytical far-field extrapolation by fixed multipoles:
  | Hartree multipole sum: apparent total charge =  -0.105740E-06
  Summing up the Hartree potential.
  Time summed over all CPUs for potential: real work        0.287 s, elapsed        0.309 s
  | RMS charge density error from multipole expansion :   0.641540E-03

  Integrating Hamiltonian matrix: batch-based integration.
  Time summed over all CPUs for integration: real work        0.168 s, elapsed        0.174 s

  Updating Kohn-Sham eigenvalues, eigenvectors, occupation numbers, and Fermi level.
  Solving generalized eigenproblem
  Updating Kohn-Sham eigenvalues and eigenfunctions.
  Solving real generalised eigenvalue problem by standard LAPACK (fast)
  Determining occupation numbers for Kohn-Sham eigenstates.
  | Chemical potential (Fermi level) in eV                 : -.51087290E+01
  | Error in electron count due to remaining E_F inaccuracy: 0.00000000E+00
  | Maximum occupation number of highest empty state:  0.00E+00

  Highest occupied state (VBM) at     -5.10872896 eV
  | Occupation number:      1.00000042

  Lowest unoccupied state (CBM) at    -5.10872895 eV
  | Occupation number:      0.99999958

  Overall HOMO-LUMO gap:      0.00000001 eV.

  Total energy components:
  | Sum of eigenvalues            :         -82.86478252 Ha       -2254.86545868 eV
  | XC energy correction          :         -16.91326500 Ha        -460.23335719 eV
  | XC potential correction       :          21.74738727 Ha         591.77651695 eV
  | Free-atom electrostatic energy:         -71.52330930 Ha       -1946.24827011 eV
  | Hartree energy correction     :          -0.64804761 Ha         -17.63427258 eV
  | Entropy correction            :          -0.00020734 Ha          -0.00564190 eV
  | ---------------------------
  | Total energy                  :        -150.20201716 Ha       -4087.20484160 eV
  | Total energy, T -> 0          :        -150.20222450 Ha       -4087.21048350 eV  <-- do not rely on this value for anything but (periodic) metals
  | Electronic free energy        :        -150.20243183 Ha       -4087.21612540 eV

  Derived energy quantities:
  | Kinetic energy                :         150.19544523 Ha        4087.02601036 eV
  | Electrostatic energy          :        -283.48419739 Ha       -7713.99749478 eV
  | Energy correction for multipole
  | error in Hartree potential    :          -0.00058630 Ha          -0.01595412 eV
  | Sum of eigenvalues per atom                           :       -1127.43272934 eV
  | Total energy (T->0) per atom                          :       -2043.60524175 eV  <-- do not rely on this value for anything but (periodic) metals
  | Electronic free energy per atom                       :       -2043.60806270 eV

  atomic forces [eV/Ang]:
  -----------------------
  atom #    1
   Hellmann-Feynman              : -0.536924E-10 -0.492451E-11 -0.243150E+02
   Ionic forces                  :  0.000000E+00  0.000000E+00  0.000000E+00
   Multipole                     :  0.160318E-12  0.167744E-12  0.439692E-01
   Pulay + GGA                   : -0.656535E-12 -0.170128E-11  0.149520E+02
   ----------------------------------------------------------------
   Total forces(   1)            : -0.541886E-10 -0.645805E-11 -0.931904E+01
  atom #    2
   Hellmann-Feynman              : -0.237243E-10  0.185040E-10  0.243150E+02
   Ionic forces                  :  0.000000E+00  0.000000E+00  0.000000E+00
   Multipole                     :  0.143321E-12  0.960341E-13 -0.439692E-01
   Pulay + GGA                   : -0.107657E-10  0.550633E-11 -0.149520E+02
   ----------------------------------------------------------------
   Total forces(   2)            : -0.343467E-10  0.241064E-10  0.931904E+01


  Self-consistency convergence accuracy:
  | Change of charge density      :  0.2733E-06
  | Change of sum of eigenvalues  :  0.4425E-04 eV
  | Change of total energy        : -0.1562E-09 eV
  | Change of forces              :  0.7258E-04 eV/A

  Writing Kohn-Sham eigenvalues.

  State    Occupation    Eigenvalue [Ha]    Eigenvalue [eV]
      1       2.00000         -18.890116         -514.02622
      2       2.00000         -18.889903         -514.02042
      3       2.00000          -1.264962          -34.42137
      4       2.00000          -0.702169          -19.10699
      5       2.00000          -0.501484          -13.64608
      6       2.00000          -0.501484          -13.64608
      7       2.00000          -0.494530          -13.45685
      8       1.00000          -0.187742           -5.10873
      9       1.00000          -0.187742           -5.10873
     10       0.00000           0.098767            2.68759
     11       0.00000           0.105011            2.85750
     12       0.00000           0.133245            3.62577
     13       0.00000           0.133245            3.62577
     14       0.00000           0.210368            5.72440

  Highest occupied state (VBM) at     -5.10872896 eV
  | Occupation number:      1.00000042

  Lowest unoccupied state (CBM) at    -5.10872895 eV
  | Occupation number:      0.99999958

  Overall HOMO-LUMO gap:      0.00000001 eV.

  Self-consistency cycle converged.

  End self-consistency iteration #    10       :  max(cpu_time)    wall_clock(cpu1)
  | Time for this iteration                    :        0.134 s           0.135 s
  | Charge density & force component update    :        0.056 s           0.056 s
  | Density mixing                             :        0.004 s           0.004 s
  | Hartree multipole update                   :        0.005 s           0.005 s
  | Hartree multipole summation                :        0.040 s           0.040 s
  | Integration                                :        0.023 s           0.022 s
  | Solution of K.-S. eqns.                    :        0.004 s           0.004 s
  | Total energy evaluation                    :        0.002 s           0.001 s
------------------------------------------------------------
  Writing cluster restart information to file restart
  ------------------------------------------------------------
   Computing monopole / dipole moments for complete molecule:
  | Total electronic charge [e]         :          0.160000000000001E+02
  | Total ionic charge [e]              :          0.160000000000000E+02
  | Total charge [e]                    :         -0.888178419700125E-13
  | Total dipole moment [eAng]          :          0.181538959298511E-13        -0.172873264639439E-13        -0.188001511247648E-13
  | Absolute dipole moment              :          0.313346657237130E-13 eAng              /                   0.150483357432238E-12 Debye  .
  Removing unitary transformations (pure translations, rotations) from forces on atoms.
  Atomic forces before filtering:
  | Net force on center of mass :  -0.885353E-10  0.176483E-10  0.773569E-12 eV/A
  | Net torque on center of mass:  -0.171968E-10  0.111639E-10  0.000000E+00 eV
  Atomic forces after filtering:
  | Net force on center of mass :  -0.519230E-26  0.519230E-26 -0.285450E-14 eV/A
  | Net torque on center of mass:   0.146070E-26  0.292140E-26  0.000000E+00 eV

  Energy and forces in a compact form:
  | Total energy uncorrected      :         -0.408720484160406E+04 eV
  | Total energy corrected        :         -0.408721048349977E+04 eV  <-- do not rely on this value for anything but (periodic) metals
  | Electronic free energy        :         -0.408721612539548E+04 eV
  Total atomic forces (unitary forces cleaned) [eV/Ang]:
  |   1         -0.519230158900898E-26          0.389422619175673E-26         -0.931904228953050E+01
  |   2          0.000000000000000E+00          0.129807539725224E-26          0.931904228953049E+01

  ------------------------------------ 
  Start decomposition of the XC Energy 
  ------------------------------------ 
  Hartree-Fock part   :          0.000000000 Ha              0.000000000 eV
  ------------------------------------ 
  X Energy            :        -16.373126104 Ha           -445.535429879 eV
  C Energy GGA        :         -0.540138901 Ha            -14.697927308 eV
  Total XC Energy     :        -16.913265004 Ha           -460.233357187 eV
  LDA X and C from self-consistent density 
  X Energy LDA        :        -14.878321945 Ha           -404.859739153 eV
  C Energy LDA        :         -1.115922036 Ha            -30.365783594 eV
  ------------------------------------ 
  End decomposition of the XC Energy 
  ------------------------------------ 

------------------------------------------------------------------------------
  Final output of selected total energy values:

  The following output summarizes some interesting total energy values
  at the end of a run (AFTER all relaxation, molecular dynamics, etc.).

  | Total energy of the DFT / Hartree-Fock s.c.f. calculation      :          -4087.204841604 eV
  | Final zero-broadening corrected energy (caution - metals only) :          -4087.210483500 eV
  | For reference only, the value of 1 Hartree used in FHI-aims is :             27.211384500 eV

  Before relying on these values, please be sure to understand exactly which
  total energy value is referred to by a given number. Different objects may
  all carry the same name 'total energy'. Definitions:

  Total energy of the DFT / Hartree-Fock s.c.f. calculation:
  | Note that this energy does not include ANY quantities calculated after the
  | s.c.f. cycle, in particular not ANY RPA, MP2, etc. many-body perturbation terms.

  Final zero-broadening corrected energy:
  | For metallic systems only, a broadening of the occupation numbers at the Fermi
  | level can be extrapolated back to zero broadening by an electron-gas inspired
  | formula. For all systems that are not real metals, this value can be
  | meaningless and should be avoided.

------------------------------------------------------------------------------
  Methods described in the following list of references were used in this FHI-aims run.
  If you publish the results, please make sure to cite these reference if they apply.
  FHI-aims is an academic code, and for our developers (often, Ph.D. students
  and postdocs), scientific credit in the community is essential.
  Thank you for helping us!

  For any use of FHI-aims, please cite:

    Volker Blum, Ralf Gehrke, Felix Hanke, Paula Havu, Ville Havu,
    Xinguo Ren, Karsten Reuter, and Matthias Scheffler
    'Ab initio molecular simulations with numeric atom-centered orbitals'
    Computer Physics Communications 180, 2175-2196 (2009)
    http://dx.doi.org/10.1016/j.cpc.2009.06.022


  For the real-space grid partitioning and parallelization used in this calculation, please cite:

    Ville Havu, Volker Blum, Paula Havu, and Matthias Scheffler,
    'Efficient O(N) integration for all-electron electronic structure calculation'
    'using numerically tabulated basis functions'
    Journal of Computational Physics 228, 8367-8379 (2009).
    http://dx.doi.org/10.1016/j.jcp.2009.08.008

  Of course, there are many other important community references, e.g., those cited in the
  above references. Our list is limited to references that describe implementations in the
  FHI-aims code. The reason is purely practical (length of this list) - please credit others as well.

------------------------------------------------------------
          Leaving FHI-aims.
          Date     :  20190722, Time     :  143611.759

          Computational steps:
          | Number of self-consistency cycles          :           10

          Detailed time accounting                     :  max(cpu_time)    wall_clock(cpu1)
          | Total time                                 :        1.002 s           1.024 s
          | Preparation time                           :        0.142 s           0.161 s
          | Grid partitioning                          :        0.017 s           0.016 s
          | Preloading free-atom quantities on grid    :        0.017 s           0.016 s
          | Free-atom superposition energy             :        0.005 s           0.005 s
          | Total time for integrations                :        0.256 s           0.254 s
          | Total time for solution of K.-S. equations :        0.021 s           0.021 s
          | Total time for density & force components  :        0.200 s           0.191 s
          | Total time for mixing                      :        0.016 s           0.015 s
          | Total time for Hartree multipole update    :        0.038 s           0.033 s
          | Total time for Hartree multipole sum       :        0.204 s           0.202 s
          | Total time for total energy evaluation     :        0.004 s           0.011 s

          Have a nice day.
------------------------------------------------------------
