  MPI-parallelism will be employed.
------------------------------------------------------------
          Invoking FHI-aims ...
          Version 160328_3
          Compiled on 2019/06/10 at 14:55:49 on host taito-login3.csc.fi.

          When using FHI-aims, please cite the following reference:

          Volker Blum, Ralf Gehrke, Felix Hanke, Paula Havu,
          Ville Havu, Xinguo Ren, Karsten Reuter, and Matthias Scheffler,
          'Ab Initio Molecular Simulations with Numeric Atom-Centered Orbitals',
          Computer Physics Communications 180, 2175-2196 (2009)

          For any questions about FHI-aims, please visit the aimsclub website
          with its forums and wiki. Contributions to both the forums and the
          wiki are warmly encouraged - they are for you, and everyone is welcome there.

------------------------------------------------------------

  Date     :  20190722, Time     :  143615.955
  Time zero on CPU 1             :   0.639890000000000E-01  s.
  Internal wall clock time zero  :           333038175.955  s.

  Using        8 parallel tasks.
  Task        0 on host c672 reporting.
  Task        1 on host c672 reporting.
  Task        2 on host c672 reporting.
  Task        3 on host c672 reporting.
  Task        4 on host c672 reporting.
  Task        5 on host c672 reporting.
  Task        6 on host c672 reporting.
  Task        7 on host c672 reporting.

  Performing system and environment tests:
  | Environment variable OMP_NUM_THREADS correctly set to 1.
  | Maximum stacksize for task 0: unlimited
  | Maximum stacksize for task 1: unlimited
  | Maximum stacksize for task 2: unlimited
  | Maximum stacksize for task 3: unlimited
  | Maximum stacksize for task 4: unlimited
  | Maximum stacksize for task 5: unlimited
  | Maximum stacksize for task 6: unlimited
  | Maximum stacksize for task 7: unlimited
  | Current stacksize for task 0: 1024 [Mb]
  | Current stacksize for task 1: 1024 [Mb]
  | Current stacksize for task 2: 1024 [Mb]
  | Current stacksize for task 3: 1024 [Mb]
  | Current stacksize for task 4: 1024 [Mb]
  | Current stacksize for task 5: 1024 [Mb]
  | Current stacksize for task 6: 1024 [Mb]
  | Current stacksize for task 7: 1024 [Mb]
  | Checking for scalapack...
  | No scalapack compiled in.

  Obtaining array dimensions for all initial allocations:
  
  -----------------------------------------------------------------------
  Parsing control.in (first pass over file, find array dimensions only).
  The contents of control.in will be repeated verbatim below
  unless switched off by setting 'verbatim_writeout .false.' .
  in the first line of control.in .
  -----------------------------------------------------------------------
  
    #  Physical model settings
    #
  
    xc                            pbe
    charge                        0.0
    relativistic                  none
  #  default_initial_moment        0.0
    spin                          none
  #  vdw_correction_hirshfeld
  
    #  SCF convergence settings
    #
  
    sc_accuracy_rho               1E-4
    sc_accuracy_eev               1E-2
    sc_accuracy_etot              1E-8
    sc_iter_limit                 100
  
    #  Occupation settings
    #
  
    restart                       restart
  #  force_occupation_projector      21 1 1.0 20 21 # ion 0
  #  force_occupation_projector      20 1 1.0 20 21 # ion 1
  #  force_occupation_projector      19 1 1.0 18 19 # ion 2
  #  force_occupation_projector      18 1 1.0 18 19 # ion 3
  #  force_occupation_projector      17 1 1.0 17 17 # ion 4
  
    #  Relaxation
    #
  
    ########relax_geometry                bfgs    1.e-4
  
  
  ################################################################################
  #
  #  FHI-aims code project
  #  VB, Fritz-Haber Institut, 2007
  #
  #  Suggested "safe" defaults for O atom (to be pasted into control.in file)
  #
  ################################################################################
    species        O
  #     global species definitions
      nucleus             8
      mass                15.9994
  #
      l_hartree           8
  #
      cut_pot             4.0  2.0  1.0
      basis_dep_cutoff    0.d0
  #
      radial_base         36 7.0
      radial_multiplier   2
       angular_grids specified
        division   0.4087  110
        division   0.5181  194
        division   0.6184  302
        division   0.7315  434
        division   0.7934  590
  #      division   0.9656  770
  #      division   1.4041  974
  #      outer_grid 974
        outer_grid 590
  ################################################################################
  #
  #  Definition of "minimal" basis
  #
  ################################################################################
  #     valence basis states
      valence      2  s   2.
      valence      2  p   4.
  #     ion occupancy
      ion_occ      2  s   1.
      ion_occ      2  p   3.
  ################################################################################
  #
  #  Suggested additional basis functions. For production calculations,
  #  uncomment them one after another (the most important basis functions are
  #  listed first).
  #
  #  Constructed for dimers: 1.0 A, 1.208 A, 1.5 A, 2.0 A, 3.0 A
  #
  ################################################################################
  #  "First tier" - improvements: -699.05 meV to -159.38 meV
       hydro 2 p 1.8
       hydro 3 d 7.6
       hydro 3 s 6.4
  #  "Second tier" - improvements: -49.91 meV to -5.39 meV
       hydro 4 f 11.6
       hydro 3 p 6.2
       hydro 3 d 5.6
       hydro 5 g 17.6
       hydro 1 s 0.75
  #  "Third tier" - improvements: -2.83 meV to -0.50 meV
  #     ionic 2 p auto
  #     hydro 4 f 10.8
  #     hydro 4 d 4.7
  #     hydro 2 s 6.8
  #  "Fourth tier" - improvements: -0.40 meV to -0.12 meV
  #     hydro 3 p 5
  #     hydro 3 s 3.3
  #     hydro 5 g 15.6
  #     hydro 4 f 17.6
  #     hydro 4 d 14
  # Further basis functions - -0.08 meV and below
  #     hydro 3 s 2.1
  #     hydro 4 d 11.6
  #     hydro 3 p 16
  #     hydro 2 s 17.2
  compute_forces .true.
  final_forces_cleaned .true.
  output dipole
  
  -----------------------------------------------------------------------
  Completed first pass over input file control.in .
  -----------------------------------------------------------------------
  
  
  -----------------------------------------------------------------------
  Parsing geometry.in (first pass over file, find array dimensions only).
  The contents of geometry.in will be repeated verbatim below
  unless switched off by setting 'verbatim_writeout .false.' .
  in the first line of geometry.in .
  -----------------------------------------------------------------------
  
  #
  # temporary structure-file for finite-difference calculation of forces
  # displacement   0.0025 of \# atom     1 direction     0
  #
  atom    0.00000000   -0.00000000    0.04235920   O
  atom    0.00250000   -0.00000000    1.16514080   O
  
  -----------------------------------------------------------------------
  Completed first pass over input file geometry.in .
  -----------------------------------------------------------------------
  

  Basic array size parameters:
  | Number of species                 :        1
  | Number of atoms                   :        2
  | Max. basis fn. angular momentum   :        4
  | Max. atomic/ionic basis occupied n:        2
  | Max. number of basis fn. types    :        2
  | Max. radial fns per species/type  :        8
  | Max. logarithmic grid size        :     1301
  | Max. radial integration grid size :       73
  | Max. angular integration grid size:      590
  | Max. angular grid division number :        8
  | Radial grid for Hartree potential :     1301
  | Number of spin channels           :        1

------------------------------------------------------------
          Reading file control.in.
------------------------------------------------------------
  XC: Using PBE gradient-corrected functionals.
  Charge =   0.000000E+00: Neutral system requested explicitly.
  Non-relativistic treatment of kinetic energy.
  Spin treatment: No spin polarisation.
  Convergence accuracy of self-consistent charge density:  0.1000E-03
  Convergence accuracy of sum of eigenvalues:  0.1000E-01
  Convergence accuracy of total energy:  0.1000E-07
  Maximum number of s.-c. iterations  :   100
  Restart file specified as : restart
  | This file does not exist, will create it after the first complete scf cycle.
 
  Reading configuration options for species O                   .
  | Found nuclear charge :   8.0000
  | Found atomic mass :    15.9994000000000      amu
  | Found l_max for Hartree potential  :   8
  | Found cutoff potl. onset [A], width [A], scale factor :    4.00000    2.00000    1.00000
  | Threshold for basis-dependent cutoff potential is   0.000000E+00
  | Found data for basic radial integration grid :    36 points, outermost radius =    7.000 A
  | Found multiplier for basic radial grid :   2
  | Found angular grid specification: user-specified.
  | Specified grid contains     6 separate shells.
  | Check grid settings after all constraints further below.
  | Found free-atom valence shell :  2 s   2.000
  | Found free-atom valence shell :  2 p   4.000
  | No ionic wave fns used. Skipping ion_occ.
  | No ionic wave fns used. Skipping ion_occ.
  | Found hydrogenic basis function :  2 p   1.800
  | Found hydrogenic basis function :  3 d   7.600
  | Found hydrogenic basis function :  3 s   6.400
  | Found hydrogenic basis function :  4 f  11.600
  | Found hydrogenic basis function :  3 p   6.200
  | Found hydrogenic basis function :  3 d   5.600
  | Found hydrogenic basis function :  5 g  17.600
  | Found hydrogenic basis function :  1 s   0.750
  Species O                   : Missing cutoff potential type.
  Defaulting to exp(1/x)/(1-x)^2 type cutoff potential.
  Species O : No 'logarithmic' tag. Using default grid for free atom:
  | Default logarithmic grid data [bohr] : 0.1000E-03 0.1000E+03 0.1012E+01
  Species O : On-site basis accuracy parameter (for Gram-Schmidt orthonormalisation) not specified.
  Using default value basis_acc =  0.1000000E-03.
  Species O                   : Using default innermost maximum threshold i_radial=  2 for radial functions.
  Species O                   : Default cutoff onset for free atom density etc. : 0.40000000E+01 AA.
  Species O                   : Basic radial grid will be enhanced according to radial_multiplier =   2, to contain    73 grid points.
  Forces will be computed.
  Cleaning forces before final output.
  Dipole moment will be written out.
 
  Finished reading input file 'control.in'. Consistency checks are next.
 
  Target number of points in a grid batch is not set. Defaulting to  100
  Method for grid partitioning is not set. Defaulting to parallel hash+maxmin partitioning.
  Batch size limit is not set. Defaulting to    200
  By default, will store active basis functions for each batch.
  If in need of memory, prune_basis_once .false. can be used to disable this option.
  communication_type for Hartree potential was not specified.
  Defaulting to calc_hartree .
  Defaulting to Pulay charge density mixer.
  Pulay mixer: Number of relevant iterations not set.
  Defaulting to    8 iterations.
  Pulay mixer: Number of initial linear mixing iterations not set.
  Defaulting to    0 iterations.
  Work space size for distributed Hartree potential not set.
  Defaulting to   0.200000E+03 MB.
  Mixing parameter for charge density mixing has not been set.
  Using default: charge_mix_param =     0.2000.
  Algorithm-dependent basis array size parameters:
  | n_max_pulay                         :        8
  Geometry relaxation not requested: no relaxation will be performed.
  Force calculation: scf convergence accuracy of forces not set.
  Defaulting to  0.1000E-03 eV/A.
  Handling of forces: Unphysical translation and rotation will be removed from forces.
  No accuracy limit for integral partition fn. given. Defaulting to  0.1000E-14.
  No threshold value for u(r) in integrations given. Defaulting to  0.1000E-05.
  No occupation type (smearing scheme) given. Defaulting to Gaussian broadening, width =  0.1000E-01 eV.
  No accuracy for occupation numbers given. Defaulting to  0.1000E-07.
  No threshold value for occupation numbers given. Defaulting to  0.0000E+00.
  No accuracy for fermi level given. Defaulting to  0.1000E-19.
  Maximum # of iterations to find E_F not set. Defaulting to  200.
  Preferred method for the eigenvalue solver ('KS_method') not specified in 'control.in'.
  Calling blacs routine to test compilation state
  The best choice would be 'elpa', but your version of FHI-aims is compiled without scalapack support.
  Defaulting to 'lapack_fast' instead (serial solution, time will not improve with more CPUs).
  Will not use alltoall communication since running on < 1024 CPUs.
  Threshold for basis singularities not set.
  Default threshold for basis singularities:  0.1000E-04
  partition_type (choice of integration weights) for integrals was not specified.
  | Using a version of the partition function of Stratmann and coworkers ('stratmann_smoother').
  | At each grid point, the set of atoms used to build the partition table is smoothly restricted to
  | only those atoms whose free-atom density would be non-zero at that grid point.
  Partitioning for Hartree potential was not defined. Using partition_type for integrals.
  | Adjusted default value of keyword multip_moments_threshold to:       0.10000000E-11
  | This value may affect high angular momentum components of the Hartree potential in periodic systems.
  No q(lm)/r^(l+1) cutoff set for long-range Hartree potential.
  | Using default value of  0.100000E-09 .
  | Verify using the multipole_threshold keyword.
  Defaulting to new monopole extrapolation.
  Density update method: automatic selection selected.
------------------------------------------------------------


------------------------------------------------------------
          Reading geometry description geometry.in.
------------------------------------------------------------
  Input structure read successfully.
  The structure contains        2 atoms,  and a total of         16.000 electrons.

  Input geometry:
  | No unit cell requested.
  | Atomic structure:
  |       Atom                x [A]            y [A]            z [A]
  |    1: Species O              0.000000         0.000000         0.042359
  |    2: Species O              0.002500         0.000000         1.165141
  |

  | The smallest distance between any two atoms is         1.12278438 AA.
  |
  | The first atom of this pair is atom number                      1 .
  | The second atom of this pair is atom number                     2 .

  Number of empty states per atom not set in control.in - providing a guess from actual geometry.
  | Total number of empty states used during s.c.f. cycle:        6
  If you use a very high smearing, use empty_states (per atom!) in control.in to increase this value.

  Structure-dependent array size parameters: 
  | Maximum number of distinct radial functions  :       11
  | Maximum number of basis functions            :       78
  | Number of Kohn-Sham states (occupied + empty):       14
------------------------------------------------------------

------------------------------------------------------------
          Preparing all fixed parts of the calculation.
------------------------------------------------------------
  Determining machine precision:
    2.225073858507201E-308
  Setting up grids for atomic and cluster calculations.

  Creating wave function, potential, and density for free atoms.

  Species: O

  List of occupied orbitals and eigenvalues:
    n    l              occ      energy [Ha]    energy [eV]
    1    0           2.0000       -18.898576      -514.2564
    2    0           2.0000        -0.878795       -23.9132
    2    1           4.0000        -0.332075        -9.0362

  Creating fixed part of basis set: Ionic, confined, hydrogenic.
 
  O                    hydrogenic:
 
  List of hydrogenic basis orbitals: 
    n    l      effective z      eigenvalue [eV]  inner max. [A]     outer max. [A]     outer radius [A]   
    2    1         1.800000       -11.0118           1.178562           1.178562           5.432602
    3    2         7.600000       -87.3183           0.624125           0.624125           4.634338
    3    0         6.400000       -61.9210           0.061167           1.081902           5.110480
    4    3        11.600000      -114.4239           0.731631           0.731631           4.522403
    3    1         6.200000       -58.1114           0.255680           1.030270           5.110480
    3    2         5.600000       -47.4083           0.847233           0.847233           5.173339
    5    4        17.600000      -168.5800           0.749740           0.749740           4.051222
    1    0         0.750000        -7.6499           0.705284           0.705284           5.366593
 

  Adding cutoff potential to free-atom effective potential.
  Creating atomic-like basis functions for current effective potential.

  Species O                   :

  List of atomic basis orbitals and eigenvalues:
    n    l      energy [Ha]    energy [eV]    outer radius [A]
    1    0       -18.898576      -514.2564       1.415765
    2    0        -0.878795       -23.9132       5.048385
    2    1        -0.332075        -9.0362       5.301386

  Assembling full basis from fixed parts.
  | Species O :   atomic orbital   1 s accepted.
  | Species O :   atomic orbital   2 s accepted.
  | Species O :    hydro orbital   3 s accepted.
  | Species O :    hydro orbital   1 s accepted.
  | Species O :   atomic orbital   2 p accepted.
  | Species O :    hydro orbital   2 p accepted.
  | Species O :    hydro orbital   3 p accepted.
  | Species O :    hydro orbital   3 d accepted.
  | Species O :    hydro orbital   3 d accepted.
  | Species O :    hydro orbital   4 f accepted.
  | Species O :    hydro orbital   5 g accepted.
 
  Basis size parameters after reduction:
  | Total number of radial functions:       11
  | Total number of basis functions :       78
 
  Testing on-site integration grid accuracy.
  |  Species  Function  <phi|h_atom|phi> (log., in eV)  <phi|h_atom|phi> (rad., in eV)
           1        1               -514.2564144315               -514.2564099626
           1        2                -23.9132357102                -23.9132356433
           1        3                 17.5398579759                 17.5398338425
           1        4                 14.5207278950                 14.5207740449
           1        5                 -9.0362392718                 -9.0362394845
           1        6                  7.9056275927                  7.9056237490
           1        7                 33.4201658992                 33.4201612015
           1        8                 45.8231952720                 45.8231953152
           1        9                 52.1937595491                 52.1937593440
           1       10                 85.4062894308                 85.4062894578
           1       11                142.0975701139                142.0975701391

  Preparing densities etc. for the partition functions (integrals / Hartree potential).

  Preparations completed.
  max(cpu_time)          :      0.141 s.
  Wall clock time (cpu1) :      0.152 s.
------------------------------------------------------------

------------------------------------------------------------
          Begin self-consistency loop: Initialization.

          Date     :  20190722, Time     :  143616.123
------------------------------------------------------------

  Initializing index lists of integration centers etc. from given atomic structure:
  | Number of centers in hartree potential         :         2
  | Number of centers in hartree multipole         :         2
  | Number of centers in electron density summation:         2
  | Number of centers in basis integrals           :         2
  | Number of centers in integrals                 :         2
  | Number of centers in hamiltonian               :         2
  Partitioning the integration grid into batches with parallel hashing+maxmin method.
  | Number of batches:      806
  | Maximal batch size:     116
  | Minimal batch size:      49
  | Average batch size:      66.079
  | Standard deviation of batch sizes:      19.984

  Integration load balanced across     8 MPI tasks.
  Work distribution over tasks is as follows:
  Task     0 has       6678 integration points.
  Task     1 has       6629 integration points.
  Task     2 has       6662 integration points.
  Task     3 has       6705 integration points.
  Task     4 has       6644 integration points.
  Task     5 has       6651 integration points.
  Task     6 has       6625 integration points.
  Task     7 has       6666 integration points.
  Initializing partition tables, free-atom densities, potentials, etc. across the integration grid (initialize_grid_storage).
  | initialize_grid_storage: Actual outermost partition radius vs. multipole_radius_free
  | (-- VB: in principle, multipole_radius_free should be larger, hence this output)
  | Species        1: Confinement radius =              6.000000000000000 AA, multipole_radius_free =              6.064445521808699 AA.
  | Species        1: outer_partition_radius set to              6.064445521808699 AA .
  | Original list of interatomic distances with           2 x          2 entries is created.
  | Net number of integration points:    53260
  | of which are non-zero points    :    49990
  Obtaining max. number of non-zero basis functions in each batch (get_n_compute_maxes).
  | Maximal number of non-zero basis functions:       78 in task     0
  | Maximal number of non-zero basis functions:       78 in task     1
  | Maximal number of non-zero basis functions:       78 in task     2
  | Maximal number of non-zero basis functions:       78 in task     3
  | Maximal number of non-zero basis functions:       78 in task     4
  | Maximal number of non-zero basis functions:       78 in task     5
  | Maximal number of non-zero basis functions:       78 in task     6
  | Maximal number of non-zero basis functions:       78 in task     7
  Selecting the method for density update.
  Loop over occupied states selected for charge density update.
  Integrating Hamiltonian matrix: batch-based integration.
  Time summed over all CPUs for integration: real work        0.175 s, elapsed        0.179 s
  Integrating overlap matrix.
  Time summed over all CPUs for integration: real work        0.062 s, elapsed        0.063 s

  Updating Kohn-Sham eigenvalues, eigenvectors, occupation numbers, and Fermi level.
  Solving generalized eigenproblem
  Updating Kohn-Sham eigenvalues and eigenfunctions.
  Transforming overlap matrix and checking for singularities.
  Overlap matrix is nonsingular:
  | Lowest eigenvalue:  0.185756E-03
  Solving real generalised eigenvalue problem by standard LAPACK (fast)
  Determining occupation numbers for Kohn-Sham eigenstates.
  | Chemical potential (Fermi level) in eV                 : -.60447009E+01
  | Error in electron count due to remaining E_F inaccuracy: -.42632564E-12
  | Maximum occupation number of highest empty state:  0.00E+00

  Writing Kohn-Sham eigenvalues.

  State    Occupation    Eigenvalue [Ha]    Eigenvalue [eV]
      1       2.00000         -18.953128         -515.74085
      2       2.00000         -18.952911         -515.73495
      3       2.00000          -1.278978          -34.80277
      4       2.00000          -0.749291          -20.38924
      5       2.00000          -0.543119          -14.77903
      6       2.00000          -0.527515          -14.35443
      7       2.00000          -0.527515          -14.35443
      8       1.00000          -0.222139           -6.04470
      9       1.00000          -0.222139           -6.04470
     10       0.00000           0.089762            2.44256
     11       0.00000           0.095446            2.59722
     12       0.00000           0.127473            3.46872
     13       0.00000           0.127473            3.46872
     14       0.00000           0.202055            5.49820

  Highest occupied state (VBM) at     -6.04470086 eV
  | Occupation number:      1.00000001

  Lowest unoccupied state (CBM) at    -6.04470086 eV
  | Occupation number:      0.99999999

  Overall HOMO-LUMO gap:      0.00000000 eV.
  Calculating total energy contributions from superposition of free atom densities.

  Total energy components:
  | Sum of eigenvalues            :         -83.50919410 Ha       -2272.40079005 eV
  | XC energy correction          :         -16.82076998 Ha        -457.71643950 eV
  | XC potential correction       :          21.62723246 Ha         588.50693812 eV
  | Free-atom electrostatic energy:         -71.50995483 Ha       -1945.88487651 eV
  | Hartree energy correction     :           0.00000000 Ha           0.00000000 eV
  | Entropy correction            :          -0.00020734 Ha          -0.00564190 eV
  | ---------------------------
  | Total energy                  :        -150.21268646 Ha       -4087.49516793 eV
  | Total energy, T -> 0          :        -150.21289379 Ha       -4087.50080983 eV  <-- do not rely on this value for anything but (periodic) metals
  | Electronic free energy        :        -150.21310113 Ha       -4087.50645172 eV

  Derived energy quantities:
  | Kinetic energy                :         149.92148576 Ha        4079.57119389 eV
  | Electrostatic energy          :        -283.31340224 Ha       -7709.34992232 eV
  | Energy correction for multipole
  | error in Hartree potential    :           0.00000000 Ha           0.00000000 eV
  | Sum of eigenvalues per atom                           :       -1136.20039502 eV
  | Total energy (T->0) per atom                          :       -2043.75040491 eV  <-- do not rely on this value for anything but (periodic) metals
  | Electronic free energy per atom                       :       -2043.75322586 eV
  Initialize hartree_potential_storage
  Max. number of atoms included in rho_multipole:            2

  End scf initialization - timings             :  max(cpu_time)    wall_clock(cpu1)
  | Time for scf. initialization               :        0.089 s           0.088 s
  | Boundary condition initialization          :        0.000 s           0.001 s
  | Integration                                :        0.031 s           0.031 s
  | Solution of K.-S. eqns.                    :        0.008 s           0.009 s
  | Grid partitioning                          :        0.016 s           0.016 s
  | Preloading free-atom quantities on grid    :        0.017 s           0.017 s
  | Free-atom superposition energy             :        0.005 s           0.005 s
  | Total energy evaluation                    :        0.001 s           0.002 s
------------------------------------------------------------

------------------------------------------------------------
          Begin self-consistency iteration #    1

  Date     :  20190722, Time     :  143616.212
------------------------------------------------------------
  Evaluating new KS density.
  Integration grid: deviation in total charge (<rho> - N_e) =  -2.415845E-13
  Pulay mixing of updated and previous charge densities.

  Evaluating partitioned Hartree potential by multipole expansion.
  | Analytical far-field extrapolation by fixed multipoles:
  | Hartree multipole sum: apparent total charge =  -0.399732E-07
  Summing up the Hartree potential.
  Time summed over all CPUs for potential: real work        0.109 s, elapsed        0.114 s
  | RMS charge density error from multipole expansion :   0.119909E-03

  Integrating Hamiltonian matrix: batch-based integration.
  Time summed over all CPUs for integration: real work        0.166 s, elapsed        0.170 s

  Updating Kohn-Sham eigenvalues, eigenvectors, occupation numbers, and Fermi level.
  Solving generalized eigenproblem
  Updating Kohn-Sham eigenvalues and eigenfunctions.
  Solving real generalised eigenvalue problem by standard LAPACK (fast)
  Determining occupation numbers for Kohn-Sham eigenstates.
  | Chemical potential (Fermi level) in eV                 : -.56795464E+01
  | Error in electron count due to remaining E_F inaccuracy: 0.59571903E-10
  | Maximum occupation number of highest empty state:  0.00E+00

  Writing Kohn-Sham eigenvalues.

  State    Occupation    Eigenvalue [Ha]    Eigenvalue [eV]
      1       2.00000         -18.925614         -514.99216
      2       2.00000         -18.925396         -514.98624
      3       2.00000          -1.271974          -34.61217
      4       2.00000          -0.732328          -19.92766
      5       2.00000          -0.525896          -14.31035
      6       2.00000          -0.517239          -14.07479
      7       2.00000          -0.517239          -14.07479
      8       1.00000          -0.208719           -5.67955
      9       1.00000          -0.208719           -5.67955
     10       0.00000           0.092722            2.52309
     11       0.00000           0.098824            2.68914
     12       0.00000           0.129430            3.52197
     13       0.00000           0.129430            3.52197
     14       0.00000           0.204461            5.56366

  Highest occupied state (VBM) at     -5.67954639 eV
  | Occupation number:      1.00000007

  Lowest unoccupied state (CBM) at    -5.67954639 eV
  | Occupation number:      0.99999993

  Overall HOMO-LUMO gap:      0.00000000 eV.

  Total energy components:
  | Sum of eigenvalues            :         -83.24881076 Ha       -2265.31539870 eV
  | XC energy correction          :         -16.85683380 Ha        -458.69778599 eV
  | XC potential correction       :          21.67423550 Ha         589.78595599 eV
  | Free-atom electrostatic energy:         -71.50995483 Ha       -1945.88487651 eV
  | Hartree energy correction     :          -0.26491255 Ha          -7.20863726 eV
  | Entropy correction            :          -0.00020734 Ha          -0.00564190 eV
  | ---------------------------
  | Total energy                  :        -150.20627644 Ha       -4087.32074247 eV
  | Total energy, T -> 0          :        -150.20648377 Ha       -4087.32638436 eV  <-- do not rely on this value for anything but (periodic) metals
  | Electronic free energy        :        -150.20669111 Ha       -4087.33202626 eV

  Derived energy quantities:
  | Kinetic energy                :         150.12566016 Ha        4085.12706201 eV
  | Electrostatic energy          :        -283.47510280 Ha       -7713.75001848 eV
  | Energy correction for multipole
  | error in Hartree potential    :          -0.00015192 Ha          -0.00413402 eV
  | Sum of eigenvalues per atom                           :       -1132.65769935 eV
  | Total energy (T->0) per atom                          :       -2043.66319218 eV  <-- do not rely on this value for anything but (periodic) metals
  | Electronic free energy per atom                       :       -2043.66601313 eV

  Self-consistency convergence accuracy:
  | Change of charge density      :  0.1777E+00
  | Change of sum of eigenvalues  :  0.7085E+01 eV
  | Change of total energy        :  0.1744E+00 eV

  End self-consistency iteration #     1       :  max(cpu_time)    wall_clock(cpu1)
  | Time for this iteration                    :        0.061 s           0.060 s
  | Charge density update                      :        0.017 s           0.016 s
  | Density mixing                             :        0.001 s           0.001 s
  | Hartree multipole update                   :        0.004 s           0.003 s
  | Hartree multipole summation                :        0.016 s           0.016 s
  | Integration                                :        0.022 s           0.022 s
  | Solution of K.-S. eqns.                    :        0.001 s           0.001 s
  | Total energy evaluation                    :        0.000 s           0.001 s
------------------------------------------------------------

------------------------------------------------------------
          Begin self-consistency iteration #    2

  Date     :  20190722, Time     :  143616.275
------------------------------------------------------------
  Evaluating new KS density.
  Integration grid: deviation in total charge (<rho> - N_e) =   5.966427E-11
  Pulay mixing of updated and previous charge densities.

  Evaluating partitioned Hartree potential by multipole expansion.
  | Analytical far-field extrapolation by fixed multipoles:
  | Hartree multipole sum: apparent total charge =  -0.975913E-07
  Summing up the Hartree potential.
  Time summed over all CPUs for potential: real work        0.105 s, elapsed        0.106 s
  | RMS charge density error from multipole expansion :   0.437638E-03

  Integrating Hamiltonian matrix: batch-based integration.
  Time summed over all CPUs for integration: real work        0.165 s, elapsed        0.169 s

  Updating Kohn-Sham eigenvalues, eigenvectors, occupation numbers, and Fermi level.
  Solving generalized eigenproblem
  Updating Kohn-Sham eigenvalues and eigenfunctions.
  Solving real generalised eigenvalue problem by standard LAPACK (fast)
  Determining occupation numbers for Kohn-Sham eigenstates.
  | Chemical potential (Fermi level) in eV                 : -.49566679E+01
  | Error in electron count due to remaining E_F inaccuracy: -.89492858E-11
  | Maximum occupation number of highest empty state:  0.00E+00

  Highest occupied state (VBM) at     -4.95666796 eV
  | Occupation number:      1.00000264

  Lowest unoccupied state (CBM) at    -4.95666791 eV
  | Occupation number:      0.99999736

  Overall HOMO-LUMO gap:      0.00000005 eV.

  Total energy components:
  | Sum of eigenvalues            :         -82.74496965 Ha       -2251.60518451 eV
  | XC energy correction          :         -16.93103766 Ha        -460.71697574 eV
  | XC potential correction       :          21.77085412 Ha         592.41508241 eV
  | Free-atom electrostatic energy:         -71.50995483 Ha       -1945.88487651 eV
  | Hartree energy correction     :          -0.78612845 Ha         -21.39164347 eV
  | Entropy correction            :          -0.00020734 Ha          -0.00564190 eV
  | ---------------------------
  | Total energy                  :        -150.20123646 Ha       -4087.18359781 eV
  | Total energy, T -> 0          :        -150.20144380 Ha       -4087.18923971 eV  <-- do not rely on this value for anything but (periodic) metals
  | Electronic free energy        :        -150.20165114 Ha       -4087.19488161 eV

  Derived energy quantities:
  | Kinetic energy                :         150.45770675 Ha        4094.16250926 eV
  | Electrostatic energy          :        -283.72790555 Ha       -7720.62913134 eV
  | Energy correction for multipole
  | error in Hartree potential    :          -0.00050296 Ha          -0.01368620 eV
  | Sum of eigenvalues per atom                           :       -1125.80259225 eV
  | Total energy (T->0) per atom                          :       -2043.59461985 eV  <-- do not rely on this value for anything but (periodic) metals
  | Electronic free energy per atom                       :       -2043.59744080 eV

  Self-consistency convergence accuracy:
  | Change of charge density      :  0.1270E+00
  | Change of sum of eigenvalues  :  0.1371E+02 eV
  | Change of total energy        :  0.1371E+00 eV

  End self-consistency iteration #     2       :  max(cpu_time)    wall_clock(cpu1)
  | Time for this iteration                    :        0.061 s           0.060 s
  | Charge density update                      :        0.016 s           0.015 s
  | Density mixing                             :        0.002 s           0.002 s
  | Hartree multipole update                   :        0.004 s           0.003 s
  | Hartree multipole summation                :        0.015 s           0.014 s
  | Integration                                :        0.022 s           0.022 s
  | Solution of K.-S. eqns.                    :        0.001 s           0.001 s
  | Total energy evaluation                    :        0.000 s           0.002 s
------------------------------------------------------------

------------------------------------------------------------
          Begin self-consistency iteration #    3

  Date     :  20190722, Time     :  143616.338
------------------------------------------------------------
  Evaluating new KS density.
  Integration grid: deviation in total charge (<rho> - N_e) =  -8.991918E-12
  Pulay mixing of updated and previous charge densities.

  Evaluating partitioned Hartree potential by multipole expansion.
  | Analytical far-field extrapolation by fixed multipoles:
  | Hartree multipole sum: apparent total charge =  -0.175680E-06
  Summing up the Hartree potential.
  Time summed over all CPUs for potential: real work        0.105 s, elapsed        0.106 s
  | RMS charge density error from multipole expansion :   0.604185E-03

  Integrating Hamiltonian matrix: batch-based integration.
  Time summed over all CPUs for integration: real work        0.165 s, elapsed        0.169 s

  Updating Kohn-Sham eigenvalues, eigenvectors, occupation numbers, and Fermi level.
  Solving generalized eigenproblem
  Updating Kohn-Sham eigenvalues and eigenfunctions.
  Solving real generalised eigenvalue problem by standard LAPACK (fast)
  Determining occupation numbers for Kohn-Sham eigenstates.
  | Chemical potential (Fermi level) in eV                 : -.51382383E+01
  | Error in electron count due to remaining E_F inaccuracy: -.24458657E-10
  | Maximum occupation number of highest empty state:  0.00E+00

  Highest occupied state (VBM) at     -5.13823938 eV
  | Occupation number:      1.00011927

  Lowest unoccupied state (CBM) at    -5.13823726 eV
  | Occupation number:      0.99988073

  Overall HOMO-LUMO gap:      0.00000211 eV.

  Total energy components:
  | Sum of eigenvalues            :         -82.91060986 Ha       -2256.11248394 eV
  | XC energy correction          :         -16.91189541 Ha        -460.19608864 eV
  | XC potential correction       :          21.74569489 Ha         591.73046491 eV
  | Free-atom electrostatic energy:         -71.50995483 Ha       -1945.88487651 eV
  | Hartree energy correction     :          -0.61441031 Ha         -16.71895506 eV
  | Entropy correction            :          -0.00020734 Ha          -0.00564190 eV
  | ---------------------------
  | Total energy                  :        -150.20117551 Ha       -4087.18193924 eV
  | Total energy, T -> 0          :        -150.20138285 Ha       -4087.18758113 eV  <-- do not rely on this value for anything but (periodic) metals
  | Electronic free energy        :        -150.20159018 Ha       -4087.19322303 eV

  Derived energy quantities:
  | Kinetic energy                :         150.19092765 Ha        4086.90308065 eV
  | Electrostatic energy          :        -283.48020775 Ha       -7713.88893124 eV
  | Energy correction for multipole
  | error in Hartree potential    :          -0.00056242 Ha          -0.01530426 eV
  | Sum of eigenvalues per atom                           :       -1128.05624197 eV
  | Total energy (T->0) per atom                          :       -2043.59379057 eV  <-- do not rely on this value for anything but (periodic) metals
  | Electronic free energy per atom                       :       -2043.59661151 eV

  Self-consistency convergence accuracy:
  | Change of charge density      :  0.3298E-01
  | Change of sum of eigenvalues  : -0.4507E+01 eV
  | Change of total energy        :  0.1659E-02 eV

  End self-consistency iteration #     3       :  max(cpu_time)    wall_clock(cpu1)
  | Time for this iteration                    :        0.057 s           0.056 s
  | Charge density update                      :        0.016 s           0.014 s
  | Density mixing                             :        0.001 s           0.001 s
  | Hartree multipole update                   :        0.004 s           0.003 s
  | Hartree multipole summation                :        0.014 s           0.015 s
  | Integration                                :        0.022 s           0.021 s
  | Solution of K.-S. eqns.                    :        0.001 s           0.001 s
  | Total energy evaluation                    :        0.000 s           0.001 s
------------------------------------------------------------

------------------------------------------------------------
          Begin self-consistency iteration #    4

  Date     :  20190722, Time     :  143616.398
------------------------------------------------------------
  Evaluating new KS density.
  Integration grid: deviation in total charge (<rho> - N_e) =  -2.449241E-11
  Pulay mixing of updated and previous charge densities.

  Evaluating partitioned Hartree potential by multipole expansion.
  | Analytical far-field extrapolation by fixed multipoles:
  | Hartree multipole sum: apparent total charge =  -0.177512E-06
  Summing up the Hartree potential.
  Time summed over all CPUs for potential: real work        0.105 s, elapsed        0.106 s
  | RMS charge density error from multipole expansion :   0.637300E-03

  Integrating Hamiltonian matrix: batch-based integration.
  Time summed over all CPUs for integration: real work        0.165 s, elapsed        0.169 s

  Updating Kohn-Sham eigenvalues, eigenvectors, occupation numbers, and Fermi level.
  Solving generalized eigenproblem
  Updating Kohn-Sham eigenvalues and eigenfunctions.
  Solving real generalised eigenvalue problem by standard LAPACK (fast)
  Determining occupation numbers for Kohn-Sham eigenstates.
  | Chemical potential (Fermi level) in eV                 : -.50430847E+01
  | Error in electron count due to remaining E_F inaccuracy: 0.85265128E-13
  | Maximum occupation number of highest empty state:  0.00E+00

  Highest occupied state (VBM) at     -5.04312218 eV
  | Occupation number:      1.00423085

  Lowest unoccupied state (CBM) at    -5.04304718 eV
  | Occupation number:      0.99576915

  Overall HOMO-LUMO gap:      0.00007499 eV.

  Total energy components:
  | Sum of eigenvalues            :         -82.83840122 Ha       -2254.14758691 eV
  | XC energy correction          :         -16.92021231 Ha        -460.42240295 eV
  | XC potential correction       :          21.75655613 Ha         592.02601426 eV
  | Free-atom electrostatic energy:         -71.50995483 Ha       -1945.88487651 eV
  | Hartree energy correction     :          -0.68914684 Ha         -18.75263976 eV
  | Entropy correction            :          -0.00020733 Ha          -0.00564182 eV
  | ---------------------------
  | Total energy                  :        -150.20115907 Ha       -4087.18149187 eV
  | Total energy, T -> 0          :        -150.20136641 Ha       -4087.18713369 eV  <-- do not rely on this value for anything but (periodic) metals
  | Electronic free energy        :        -150.20157374 Ha       -4087.19277550 eV

  Derived energy quantities:
  | Kinetic energy                :         150.24030778 Ha        4088.24678234 eV
  | Electrostatic energy          :        -283.52125454 Ha       -7715.00587126 eV
  | Energy correction for multipole
  | error in Hartree potential    :          -0.00059661 Ha          -0.01623448 eV
  | Sum of eigenvalues per atom                           :       -1127.07379346 eV
  | Total energy (T->0) per atom                          :       -2043.59356684 eV  <-- do not rely on this value for anything but (periodic) metals
  | Electronic free energy per atom                       :       -2043.59638775 eV

  Self-consistency convergence accuracy:
  | Change of charge density      :  0.7547E-02
  | Change of sum of eigenvalues  :  0.1965E+01 eV
  | Change of total energy        :  0.4474E-03 eV

  End self-consistency iteration #     4       :  max(cpu_time)    wall_clock(cpu1)
  | Time for this iteration                    :        0.058 s           0.056 s
  | Charge density update                      :        0.016 s           0.014 s
  | Density mixing                             :        0.001 s           0.001 s
  | Hartree multipole update                   :        0.004 s           0.004 s
  | Hartree multipole summation                :        0.015 s           0.014 s
  | Integration                                :        0.022 s           0.021 s
  | Solution of K.-S. eqns.                    :        0.001 s           0.001 s
  | Total energy evaluation                    :        0.000 s           0.001 s
------------------------------------------------------------

------------------------------------------------------------
          Begin self-consistency iteration #    5

  Date     :  20190722, Time     :  143616.456
------------------------------------------------------------
  Evaluating new KS density.
  Integration grid: deviation in total charge (<rho> - N_e) =   5.684342E-14
  Pulay mixing of updated and previous charge densities.

  Evaluating partitioned Hartree potential by multipole expansion.
  | Analytical far-field extrapolation by fixed multipoles:
  | Hartree multipole sum: apparent total charge =  -0.178663E-06
  Summing up the Hartree potential.
  Time summed over all CPUs for potential: real work        0.105 s, elapsed        0.106 s
  | RMS charge density error from multipole expansion :   0.644445E-03

  Integrating Hamiltonian matrix: batch-based integration.
  Time summed over all CPUs for integration: real work        0.165 s, elapsed        0.169 s

  Updating Kohn-Sham eigenvalues, eigenvectors, occupation numbers, and Fermi level.
  Solving generalized eigenproblem
  Updating Kohn-Sham eigenvalues and eigenfunctions.
  Solving real generalised eigenvalue problem by standard LAPACK (fast)
  Determining occupation numbers for Kohn-Sham eigenstates.
  | Chemical potential (Fermi level) in eV                 : -.50781979E+01
  | Error in electron count due to remaining E_F inaccuracy: -.35952930E-09
  | Maximum occupation number of highest empty state:  0.00E+00

  Highest occupied state (VBM) at     -5.07861412 eV
  | Occupation number:      1.04693769

  Lowest unoccupied state (CBM) at    -5.07778169 eV
  | Occupation number:      0.95306231

  Overall HOMO-LUMO gap:      0.00083243 eV.

  Total energy components:
  | Sum of eigenvalues            :         -82.86589479 Ha       -2254.89572516 eV
  | XC energy correction          :         -16.91638908 Ha        -460.31836756 eV
  | XC potential correction       :          21.75155910 Ha         591.89003821 eV
  | Free-atom electrostatic energy:         -71.50995483 Ha       -1945.88487651 eV
  | Hartree energy correction     :          -0.66046847 Ha         -17.97226151 eV
  | Entropy correction            :          -0.00020698 Ha          -0.00563213 eV
  | ---------------------------
  | Total energy                  :        -150.20114807 Ha       -4087.18119252 eV
  | Total energy, T -> 0          :        -150.20135505 Ha       -4087.18682465 eV  <-- do not rely on this value for anything but (periodic) metals
  | Electronic free energy        :        -150.20156203 Ha       -4087.19245678 eV

  Derived energy quantities:
  | Kinetic energy                :         150.20891059 Ha        4087.39242136 eV
  | Electrostatic energy          :        -283.49366958 Ha       -7714.25524632 eV
  | Energy correction for multipole
  | error in Hartree potential    :          -0.00059241 Ha          -0.01612036 eV
  | Sum of eigenvalues per atom                           :       -1127.44786258 eV
  | Total energy (T->0) per atom                          :       -2043.59341233 eV  <-- do not rely on this value for anything but (periodic) metals
  | Electronic free energy per atom                       :       -2043.59622839 eV

  Self-consistency convergence accuracy:
  | Change of charge density      :  0.5077E-02
  | Change of sum of eigenvalues  : -0.7481E+00 eV
  | Change of total energy        :  0.2993E-03 eV

  End self-consistency iteration #     5       :  max(cpu_time)    wall_clock(cpu1)
  | Time for this iteration                    :        0.058 s           0.057 s
  | Charge density update                      :        0.016 s           0.015 s
  | Density mixing                             :        0.001 s           0.002 s
  | Hartree multipole update                   :        0.004 s           0.003 s
  | Hartree multipole summation                :        0.014 s           0.014 s
  | Integration                                :        0.022 s           0.021 s
  | Solution of K.-S. eqns.                    :        0.001 s           0.001 s
  | Total energy evaluation                    :        0.000 s           0.000 s
------------------------------------------------------------

------------------------------------------------------------
          Begin self-consistency iteration #    6

  Date     :  20190722, Time     :  143616.516
------------------------------------------------------------
  Evaluating new KS density.
  Integration grid: deviation in total charge (<rho> - N_e) =  -3.595062E-10
  Pulay mixing of updated and previous charge densities.

  Evaluating partitioned Hartree potential by multipole expansion.
  | Analytical far-field extrapolation by fixed multipoles:
  | Hartree multipole sum: apparent total charge =  -0.178741E-06
  Summing up the Hartree potential.
  Time summed over all CPUs for potential: real work        0.107 s, elapsed        0.108 s
  | RMS charge density error from multipole expansion :   0.645103E-03

  Integrating Hamiltonian matrix: batch-based integration.
  Time summed over all CPUs for integration: real work        0.165 s, elapsed        0.169 s

  Updating Kohn-Sham eigenvalues, eigenvectors, occupation numbers, and Fermi level.
  Solving generalized eigenproblem
  Updating Kohn-Sham eigenvalues and eigenfunctions.
  Solving real generalised eigenvalue problem by standard LAPACK (fast)
  Determining occupation numbers for Kohn-Sham eigenstates.
  | Chemical potential (Fermi level) in eV                 : -.50819541E+01
  | Error in electron count due to remaining E_F inaccuracy: 0.18758328E-11
  | Maximum occupation number of highest empty state:  0.00E+00

  Highest occupied state (VBM) at     -5.08195427 eV
  | Occupation number:      1.00001664

  Lowest unoccupied state (CBM) at    -5.08195397 eV
  | Occupation number:      0.99998336

  Overall HOMO-LUMO gap:      0.00000029 eV.

  Total energy components:
  | Sum of eigenvalues            :         -82.86882150 Ha       -2254.97536482 eV
  | XC energy correction          :         -16.91598827 Ha        -460.30746113 eV
  | XC potential correction       :          21.75103513 Ha         591.87578010 eV
  | Free-atom electrostatic energy:         -71.50995483 Ha       -1945.88487651 eV
  | Hartree energy correction     :          -0.65741700 Ha         -17.88922670 eV
  | Entropy correction            :          -0.00020734 Ha          -0.00564190 eV
  | ---------------------------
  | Total energy                  :        -150.20114647 Ha       -4087.18114906 eV
  | Total energy, T -> 0          :        -150.20135381 Ha       -4087.18679096 eV  <-- do not rely on this value for anything but (periodic) metals
  | Electronic free energy        :        -150.20156115 Ha       -4087.19243285 eV

  Derived energy quantities:
  | Kinetic energy                :         150.20569986 Ha        4087.30505308 eV
  | Electrostatic energy          :        -283.49085806 Ha       -7714.17874100 eV
  | Energy correction for multipole
  | error in Hartree potential    :          -0.00059193 Ha          -0.01610711 eV
  | Sum of eigenvalues per atom                           :       -1127.48768241 eV
  | Total energy (T->0) per atom                          :       -2043.59339548 eV  <-- do not rely on this value for anything but (periodic) metals
  | Electronic free energy per atom                       :       -2043.59621643 eV

  Self-consistency convergence accuracy:
  | Change of charge density      :  0.1465E-01
  | Change of sum of eigenvalues  : -0.7964E-01 eV
  | Change of total energy        :  0.4346E-04 eV

  End self-consistency iteration #     6       :  max(cpu_time)    wall_clock(cpu1)
  | Time for this iteration                    :        0.057 s           0.057 s
  | Charge density update                      :        0.015 s           0.015 s
  | Density mixing                             :        0.002 s           0.001 s
  | Hartree multipole update                   :        0.004 s           0.003 s
  | Hartree multipole summation                :        0.015 s           0.014 s
  | Integration                                :        0.022 s           0.022 s
  | Solution of K.-S. eqns.                    :        0.001 s           0.001 s
  | Total energy evaluation                    :        0.000 s           0.001 s
------------------------------------------------------------

------------------------------------------------------------
          Begin self-consistency iteration #    7

  Date     :  20190722, Time     :  143616.575
------------------------------------------------------------
  Evaluating new KS density.
  Integration grid: deviation in total charge (<rho> - N_e) =   1.872280E-12
  Pulay mixing of updated and previous charge densities.

  Evaluating partitioned Hartree potential by multipole expansion.
  | Analytical far-field extrapolation by fixed multipoles:
  | Hartree multipole sum: apparent total charge =  -0.177186E-06
  Summing up the Hartree potential.
  Time summed over all CPUs for potential: real work        0.105 s, elapsed        0.107 s
  | RMS charge density error from multipole expansion :   0.646427E-03

  Integrating Hamiltonian matrix: batch-based integration.
  Time summed over all CPUs for integration: real work        0.165 s, elapsed        0.169 s

  Updating Kohn-Sham eigenvalues, eigenvectors, occupation numbers, and Fermi level.
  Solving generalized eigenproblem
  Updating Kohn-Sham eigenvalues and eigenfunctions.
  Solving real generalised eigenvalue problem by standard LAPACK (fast)
  Determining occupation numbers for Kohn-Sham eigenstates.
  | Chemical potential (Fermi level) in eV                 : -.50841236E+01
  | Error in electron count due to remaining E_F inaccuracy: 0.26248514E-09
  | Maximum occupation number of highest empty state:  0.00E+00

  Highest occupied state (VBM) at     -5.08412482 eV
  | Occupation number:      1.00013909

  Lowest unoccupied state (CBM) at    -5.08412236 eV
  | Occupation number:      0.99986091

  Overall HOMO-LUMO gap:      0.00000247 eV.

  Total energy components:
  | Sum of eigenvalues            :         -82.87010282 Ha       -2255.01023143 eV
  | XC energy correction          :         -16.91593929 Ha        -460.30612821 eV
  | XC potential correction       :          21.75096242 Ha         591.87380158 eV
  | Free-atom electrostatic energy:         -71.50995483 Ha       -1945.88487651 eV
  | Hartree energy correction     :          -0.65611193 Ha         -17.85371397 eV
  | Entropy correction            :          -0.00020734 Ha          -0.00564190 eV
  | ---------------------------
  | Total energy                  :        -150.20114646 Ha       -4087.18114854 eV
  | Total energy, T -> 0          :        -150.20135379 Ha       -4087.18679044 eV  <-- do not rely on this value for anything but (periodic) metals
  | Electronic free energy        :        -150.20156113 Ha       -4087.19243233 eV

  Derived energy quantities:
  | Kinetic energy                :         150.20758033 Ha        4087.35622313 eV
  | Electrostatic energy          :        -283.49278749 Ha       -7714.23124346 eV
  | Energy correction for multipole
  | error in Hartree potential    :          -0.00059254 Ha          -0.01612395 eV
  | Sum of eigenvalues per atom                           :       -1127.50511572 eV
  | Total energy (T->0) per atom                          :       -2043.59339522 eV  <-- do not rely on this value for anything but (periodic) metals
  | Electronic free energy per atom                       :       -2043.59621617 eV

  Self-consistency convergence accuracy:
  | Change of charge density      :  0.2594E-03
  | Change of sum of eigenvalues  : -0.3487E-01 eV
  | Change of total energy        :  0.5184E-06 eV

  End self-consistency iteration #     7       :  max(cpu_time)    wall_clock(cpu1)
  | Time for this iteration                    :        0.058 s           0.058 s
  | Charge density update                      :        0.015 s           0.015 s
  | Density mixing                             :        0.002 s           0.002 s
  | Hartree multipole update                   :        0.003 s           0.003 s
  | Hartree multipole summation                :        0.015 s           0.014 s
  | Integration                                :        0.022 s           0.021 s
  | Solution of K.-S. eqns.                    :        0.001 s           0.001 s
  | Total energy evaluation                    :        0.000 s           0.000 s
------------------------------------------------------------

------------------------------------------------------------
          Begin self-consistency iteration #    8

  Date     :  20190722, Time     :  143616.635
------------------------------------------------------------
  Evaluating new KS density.
  Integration grid: deviation in total charge (<rho> - N_e) =   2.625953E-10
  Pulay mixing of updated and previous charge densities.

  Evaluating partitioned Hartree potential by multipole expansion.
  | Analytical far-field extrapolation by fixed multipoles:
  | Hartree multipole sum: apparent total charge =  -0.177247E-06
  Summing up the Hartree potential.
  Time summed over all CPUs for potential: real work        0.107 s, elapsed        0.108 s
  | RMS charge density error from multipole expansion :   0.646416E-03

  Integrating Hamiltonian matrix: batch-based integration.
  Time summed over all CPUs for integration: real work        0.165 s, elapsed        0.169 s

  Updating Kohn-Sham eigenvalues, eigenvectors, occupation numbers, and Fermi level.
  Solving generalized eigenproblem
  Updating Kohn-Sham eigenvalues and eigenfunctions.
  Solving real generalised eigenvalue problem by standard LAPACK (fast)
  Determining occupation numbers for Kohn-Sham eigenstates.
  | Chemical potential (Fermi level) in eV                 : -.50839943E+01
  | Error in electron count due to remaining E_F inaccuracy: 0.21723423E-09
  | Maximum occupation number of highest empty state:  0.00E+00

  Highest occupied state (VBM) at     -5.08399433 eV
  | Occupation number:      1.00000518

  Lowest unoccupied state (CBM) at    -5.08399424 eV
  | Occupation number:      0.99999482

  Overall HOMO-LUMO gap:      0.00000009 eV.

  Total energy components:
  | Sum of eigenvalues            :         -82.87000375 Ha       -2255.00753543 eV
  | XC energy correction          :         -16.91594865 Ha        -460.30638300 eV
  | XC potential correction       :          21.75097480 Ha         591.87413840 eV
  | Free-atom electrostatic energy:         -71.50995483 Ha       -1945.88487651 eV
  | Hartree energy correction     :          -0.65621402 Ha         -17.85649201 eV
  | Entropy correction            :          -0.00020734 Ha          -0.00564190 eV
  | ---------------------------
  | Total energy                  :        -150.20114646 Ha       -4087.18114854 eV
  | Total energy, T -> 0          :        -150.20135379 Ha       -4087.18679044 eV  <-- do not rely on this value for anything but (periodic) metals
  | Electronic free energy        :        -150.20156113 Ha       -4087.19243233 eV

  Derived energy quantities:
  | Kinetic energy                :         150.20763528 Ha        4087.35771851 eV
  | Electrostatic energy          :        -283.49283308 Ha       -7714.23248406 eV
  | Energy correction for multipole
  | error in Hartree potential    :          -0.00059255 Ha          -0.01612413 eV
  | Sum of eigenvalues per atom                           :       -1127.50376771 eV
  | Total energy (T->0) per atom                          :       -2043.59339522 eV  <-- do not rely on this value for anything but (periodic) metals
  | Electronic free energy per atom                       :       -2043.59621617 eV

  Self-consistency convergence accuracy:
  | Change of charge density      :  0.4545E-04
  | Change of sum of eigenvalues  :  0.2696E-02 eV
  | Change of total energy        :  0.1974E-08 eV

  Electronic self-consistency reached - switching on the force computation.

  End self-consistency iteration #     8       :  max(cpu_time)    wall_clock(cpu1)
  | Time for this iteration                    :        0.058 s           0.058 s
  | Charge density & force component update    :        0.016 s           0.015 s
  | Density mixing                             :        0.002 s           0.002 s
  | Hartree multipole update                   :        0.004 s           0.003 s
  | Hartree multipole summation                :        0.015 s           0.014 s
  | Integration                                :        0.022 s           0.021 s
  | Solution of K.-S. eqns.                    :        0.001 s           0.001 s
  | Total energy evaluation                    :        0.000 s           0.000 s
------------------------------------------------------------

------------------------------------------------------------
          Begin self-consistency iteration #    9

  Date     :  20190722, Time     :  143616.695
------------------------------------------------------------
  Evaluating new KS density.
  Integration grid: deviation in total charge (<rho> - N_e) =   2.171987E-10
  Pulay mixing of updated and previous charge densities.

  Evaluating partitioned Hartree potential by multipole expansion.
  | Analytical far-field extrapolation by fixed multipoles:
  | Hartree multipole sum: apparent total charge =  -0.177418E-06
  Summing up the Hartree potential.
  Time summed over all CPUs for potential: real work        0.274 s, elapsed        0.281 s
  | RMS charge density error from multipole expansion :   0.646460E-03

  Integrating Hamiltonian matrix: batch-based integration.
  Time summed over all CPUs for integration: real work        0.166 s, elapsed        0.170 s

  Updating Kohn-Sham eigenvalues, eigenvectors, occupation numbers, and Fermi level.
  Solving generalized eigenproblem
  Updating Kohn-Sham eigenvalues and eigenfunctions.
  Solving real generalised eigenvalue problem by standard LAPACK (fast)
  Determining occupation numbers for Kohn-Sham eigenstates.
  | Chemical potential (Fermi level) in eV                 : -.50839680E+01
  | Error in electron count due to remaining E_F inaccuracy: 0.20922286E-09
  | Maximum occupation number of highest empty state:  0.00E+00

  Highest occupied state (VBM) at     -5.08396803 eV
  | Occupation number:      1.00000166

  Lowest unoccupied state (CBM) at    -5.08396800 eV
  | Occupation number:      0.99999834

  Overall HOMO-LUMO gap:      0.00000003 eV.

  Total energy components:
  | Sum of eigenvalues            :         -82.86998709 Ha       -2255.00708219 eV
  | XC energy correction          :         -16.91595018 Ha        -460.30642464 eV
  | XC potential correction       :          21.75097680 Ha         591.87419291 eV
  | Free-atom electrostatic energy:         -71.50995483 Ha       -1945.88487651 eV
  | Hartree energy correction     :          -0.65623115 Ha         -17.85695812 eV
  | Entropy correction            :          -0.00020734 Ha          -0.00564190 eV
  | ---------------------------
  | Total energy                  :        -150.20114646 Ha       -4087.18114855 eV
  | Total energy, T -> 0          :        -150.20135379 Ha       -4087.18679044 eV  <-- do not rely on this value for anything but (periodic) metals
  | Electronic free energy        :        -150.20156113 Ha       -4087.19243234 eV

  Derived energy quantities:
  | Kinetic energy                :         150.20762637 Ha        4087.35747605 eV
  | Electrostatic energy          :        -283.49282264 Ha       -7714.23219995 eV
  | Energy correction for multipole
  | error in Hartree potential    :          -0.00059256 Ha          -0.01612446 eV
  | Sum of eigenvalues per atom                           :       -1127.50354110 eV
  | Total energy (T->0) per atom                          :       -2043.59339522 eV  <-- do not rely on this value for anything but (periodic) metals
  | Electronic free energy per atom                       :       -2043.59621617 eV

  atomic forces [eV/Ang]:
  -----------------------
  atom #    1
   Hellmann-Feynman              : -0.548192E-01 -0.199752E-10 -0.246138E+02
   Ionic forces                  :  0.000000E+00  0.000000E+00  0.000000E+00
   Multipole                     :  0.989520E-04 -0.470170E-13  0.446714E-01
   Pulay + GGA                   :  0.000000E+00  0.000000E+00  0.000000E+00
   ----------------------------------------------------------------
   Total forces(   1)            : -0.547202E-01 -0.200222E-10 -0.245692E+02
  atom #    2
   Hellmann-Feynman              :  0.548192E-01 -0.116995E-10  0.246138E+02
   Ionic forces                  :  0.000000E+00  0.000000E+00  0.000000E+00
   Multipole                     : -0.989520E-04  0.743222E-13 -0.446714E-01
   Pulay + GGA                   :  0.000000E+00  0.000000E+00  0.000000E+00
   ----------------------------------------------------------------
   Total forces(   2)            :  0.547202E-01 -0.116251E-10  0.245692E+02


  Self-consistency convergence accuracy:
  | Change of charge density      :  0.4699E-05
  | Change of sum of eigenvalues  :  0.4532E-03 eV
  | Change of total energy        : -0.7131E-08 eV
  | Change of forces              :  0.2457E+02 eV/A

  End self-consistency iteration #     9       :  max(cpu_time)    wall_clock(cpu1)
  | Time for this iteration                    :        0.080 s           0.080 s
  | Charge density & force component update    :        0.016 s           0.015 s
  | Density mixing                             :        0.002 s           0.002 s
  | Hartree multipole update                   :        0.004 s           0.003 s
  | Hartree multipole summation                :        0.036 s           0.036 s
  | Integration                                :        0.022 s           0.021 s
  | Solution of K.-S. eqns.                    :        0.001 s           0.001 s
  | Total energy evaluation                    :        0.002 s           0.002 s
------------------------------------------------------------

------------------------------------------------------------
          Begin self-consistency iteration #   10

  Date     :  20190722, Time     :  143616.777
------------------------------------------------------------
  Evaluating new KS density and force components.
  Integration grid: deviation in total charge (<rho> - N_e) =   2.092406E-10
  Pulay mixing of updated and previous charge densities.

  Evaluating partitioned Hartree potential by multipole expansion.
  | Analytical far-field extrapolation by fixed multipoles:
  | Hartree multipole sum: apparent total charge =  -0.177417E-06
  Summing up the Hartree potential.
  Time summed over all CPUs for potential: real work        0.274 s, elapsed        0.280 s
  | RMS charge density error from multipole expansion :   0.646460E-03

  Integrating Hamiltonian matrix: batch-based integration.
  Time summed over all CPUs for integration: real work        0.166 s, elapsed        0.169 s

  Updating Kohn-Sham eigenvalues, eigenvectors, occupation numbers, and Fermi level.
  Solving generalized eigenproblem
  Updating Kohn-Sham eigenvalues and eigenfunctions.
  Solving real generalised eigenvalue problem by standard LAPACK (fast)
  Determining occupation numbers for Kohn-Sham eigenstates.
  | Chemical potential (Fermi level) in eV                 : -.50839664E+01
  | Error in electron count due to remaining E_F inaccuracy: 0.20862601E-09
  | Maximum occupation number of highest empty state:  0.00E+00

  Highest occupied state (VBM) at     -5.08396644 eV
  | Occupation number:      1.00000091

  Lowest unoccupied state (CBM) at    -5.08396643 eV
  | Occupation number:      0.99999910

  Overall HOMO-LUMO gap:      0.00000002 eV.

  Total energy components:
  | Sum of eigenvalues            :         -82.86998572 Ha       -2255.00704488 eV
  | XC energy correction          :         -16.91595034 Ha        -460.30642892 eV
  | XC potential correction       :          21.75097700 Ha         591.87419849 eV
  | Free-atom electrostatic energy:         -71.50995483 Ha       -1945.88487651 eV
  | Hartree energy correction     :          -0.65623257 Ha         -17.85699674 eV
  | Entropy correction            :          -0.00020734 Ha          -0.00564190 eV
  | ---------------------------
  | Total energy                  :        -150.20114646 Ha       -4087.18114855 eV
  | Total energy, T -> 0          :        -150.20135379 Ha       -4087.18679044 eV  <-- do not rely on this value for anything but (periodic) metals
  | Electronic free energy        :        -150.20156113 Ha       -4087.19243234 eV

  Derived energy quantities:
  | Kinetic energy                :         150.20762727 Ha        4087.35750055 eV
  | Electrostatic energy          :        -283.49282339 Ha       -7714.23222018 eV
  | Energy correction for multipole
  | error in Hartree potential    :          -0.00059256 Ha          -0.01612449 eV
  | Sum of eigenvalues per atom                           :       -1127.50352244 eV
  | Total energy (T->0) per atom                          :       -2043.59339522 eV  <-- do not rely on this value for anything but (periodic) metals
  | Electronic free energy per atom                       :       -2043.59621617 eV

  atomic forces [eV/Ang]:
  -----------------------
  atom #    1
   Hellmann-Feynman              : -0.548191E-01  0.264347E-10 -0.246138E+02
   Ionic forces                  :  0.000000E+00  0.000000E+00  0.000000E+00
   Multipole                     :  0.989522E-04  0.114930E-12  0.446715E-01
   Pulay + GGA                   :  0.332187E-01  0.611148E-11  0.149128E+02
   ----------------------------------------------------------------
   Total forces(   1)            : -0.215015E-01  0.326611E-10 -0.965630E+01
  atom #    2
   Hellmann-Feynman              :  0.548191E-01  0.105099E-10  0.246138E+02
   Ionic forces                  :  0.000000E+00  0.000000E+00  0.000000E+00
   Multipole                     : -0.989522E-04  0.399309E-13 -0.446715E-01
   Pulay + GGA                   : -0.332187E-01  0.265326E-11 -0.149128E+02
   ----------------------------------------------------------------
   Total forces(   2)            :  0.215015E-01  0.132031E-10  0.965630E+01


  Self-consistency convergence accuracy:
  | Change of charge density      :  0.5641E-06
  | Change of sum of eigenvalues  :  0.3731E-04 eV
  | Change of total energy        : -0.1021E-09 eV
  | Change of forces              :  0.5256E-04 eV/A

  Writing Kohn-Sham eigenvalues.

  State    Occupation    Eigenvalue [Ha]    Eigenvalue [eV]
      1       2.00000         -18.889873         -514.01961
      2       2.00000         -18.889654         -514.01363
      3       2.00000          -1.267293          -34.48480
      4       2.00000          -0.701439          -19.08712
      5       2.00000          -0.502548          -13.67503
      6       2.00000          -0.502548          -13.67503
      7       2.00000          -0.494805          -13.46433
      8       1.00000          -0.186832           -5.08397
      9       1.00000          -0.186832           -5.08397
     10       0.00000           0.098748            2.68707
     11       0.00000           0.105369            2.86723
     12       0.00000           0.133112            3.62217
     13       0.00000           0.133112            3.62217
     14       0.00000           0.210346            5.72382

  Highest occupied state (VBM) at     -5.08396644 eV
  | Occupation number:      1.00000091

  Lowest unoccupied state (CBM) at    -5.08396643 eV
  | Occupation number:      0.99999910

  Overall HOMO-LUMO gap:      0.00000002 eV.

  Self-consistency cycle converged.

  End self-consistency iteration #    10       :  max(cpu_time)    wall_clock(cpu1)
  | Time for this iteration                    :        0.119 s           0.120 s
  | Charge density & force component update    :        0.051 s           0.050 s
  | Density mixing                             :        0.002 s           0.001 s
  | Hartree multipole update                   :        0.004 s           0.004 s
  | Hartree multipole summation                :        0.036 s           0.036 s
  | Integration                                :        0.022 s           0.021 s
  | Solution of K.-S. eqns.                    :        0.001 s           0.002 s
  | Total energy evaluation                    :        0.003 s           0.003 s
------------------------------------------------------------
  Writing cluster restart information to file restart
  ------------------------------------------------------------
   Computing monopole / dipole moments for complete molecule:
  | Total electronic charge [e]         :          0.160000000002103E+02
  | Total ionic charge [e]              :          0.160000000000000E+02
  | Total charge [e]                    :         -0.210338413353384E-09
  | Total dipole moment [eAng]          :         -0.285967923749353E-12        -0.420800257597276E-13        -0.127299583296008E-09
  | Absolute dipole moment              :          0.127299911452126E-09 eAng              /                   0.611352239881898E-09 Debye  .
  Removing unitary transformations (pure translations, rotations) from forces on atoms.
  Atomic forces before filtering:
  | Net force on center of mass :   0.314399E-10  0.458643E-10  0.345137E-10 eV/A
  | Net torque on center of mass:   0.109235E-10  0.674258E-06 -0.243225E-13 eV
  Atomic forces after filtering:
  | Net force on center of mass :   0.278760E-17  0.103846E-25  0.000000E+00 eV/A
  | Net torque on center of mass:   0.000000E+00 -0.147513E-17  0.000000E+00 eV

  Energy and forces in a compact form:
  | Total energy uncorrected      :         -0.408718114854833E+04 eV
  | Total energy corrected        :         -0.408718679044404E+04 eV  <-- do not rely on this value for anything but (periodic) metals
  | Electronic free energy        :         -0.408719243233975E+04 eV
  Total atomic forces (unitary forces cleaned) [eV/Ang]:
  |   1         -0.215008500692874E-01          0.519230158900898E-26         -0.965630353686186E+01
  |   2          0.215008500692874E-01          0.519230158900898E-26          0.965630353686186E+01

  ------------------------------------ 
  Start decomposition of the XC Energy 
  ------------------------------------ 
  Hartree-Fock part   :          0.000000000 Ha              0.000000000 eV
  ------------------------------------ 
  X Energy            :        -16.375637631 Ha           -445.603772011 eV
  C Energy GGA        :         -0.540312710 Ha            -14.702656905 eV
  Total XC Energy     :        -16.915950341 Ha           -460.306428915 eV
  LDA X and C from self-consistent density 
  X Energy LDA        :        -14.881002734 Ha           -404.932687141 eV
  C Energy LDA        :         -1.116040549 Ha            -30.369008484 eV
  ------------------------------------ 
  End decomposition of the XC Energy 
  ------------------------------------ 

------------------------------------------------------------------------------
  Final output of selected total energy values:

  The following output summarizes some interesting total energy values
  at the end of a run (AFTER all relaxation, molecular dynamics, etc.).

  | Total energy of the DFT / Hartree-Fock s.c.f. calculation      :          -4087.181148548 eV
  | Final zero-broadening corrected energy (caution - metals only) :          -4087.186790444 eV
  | For reference only, the value of 1 Hartree used in FHI-aims is :             27.211384500 eV

  Before relying on these values, please be sure to understand exactly which
  total energy value is referred to by a given number. Different objects may
  all carry the same name 'total energy'. Definitions:

  Total energy of the DFT / Hartree-Fock s.c.f. calculation:
  | Note that this energy does not include ANY quantities calculated after the
  | s.c.f. cycle, in particular not ANY RPA, MP2, etc. many-body perturbation terms.

  Final zero-broadening corrected energy:
  | For metallic systems only, a broadening of the occupation numbers at the Fermi
  | level can be extrapolated back to zero broadening by an electron-gas inspired
  | formula. For all systems that are not real metals, this value can be
  | meaningless and should be avoided.

------------------------------------------------------------------------------
  Methods described in the following list of references were used in this FHI-aims run.
  If you publish the results, please make sure to cite these reference if they apply.
  FHI-aims is an academic code, and for our developers (often, Ph.D. students
  and postdocs), scientific credit in the community is essential.
  Thank you for helping us!

  For any use of FHI-aims, please cite:

    Volker Blum, Ralf Gehrke, Felix Hanke, Paula Havu, Ville Havu,
    Xinguo Ren, Karsten Reuter, and Matthias Scheffler
    'Ab initio molecular simulations with numeric atom-centered orbitals'
    Computer Physics Communications 180, 2175-2196 (2009)
    http://dx.doi.org/10.1016/j.cpc.2009.06.022


  For the real-space grid partitioning and parallelization used in this calculation, please cite:

    Ville Havu, Volker Blum, Paula Havu, and Matthias Scheffler,
    'Efficient O(N) integration for all-electron electronic structure calculation'
    'using numerically tabulated basis functions'
    Journal of Computational Physics 228, 8367-8379 (2009).
    http://dx.doi.org/10.1016/j.jcp.2009.08.008

  Of course, there are many other important community references, e.g., those cited in the
  above references. Our list is limited to references that describe implementations in the
  FHI-aims code. The reason is purely practical (length of this list) - please credit others as well.

------------------------------------------------------------
          Leaving FHI-aims.
          Date     :  20190722, Time     :  143616.931

          Computational steps:
          | Number of self-consistency cycles          :           10

          Detailed time accounting                     :  max(cpu_time)    wall_clock(cpu1)
          | Total time                                 :        0.954 s           0.976 s
          | Preparation time                           :        0.141 s           0.152 s
          | Grid partitioning                          :        0.016 s           0.016 s
          | Preloading free-atom quantities on grid    :        0.017 s           0.017 s
          | Free-atom superposition energy             :        0.005 s           0.005 s
          | Total time for integrations                :        0.251 s           0.244 s
          | Total time for solution of K.-S. equations :        0.018 s           0.020 s
          | Total time for density & force components  :        0.194 s           0.184 s
          | Total time for mixing                      :        0.016 s           0.015 s
          | Total time for Hartree multipole update    :        0.039 s           0.032 s
          | Total time for Hartree multipole sum       :        0.191 s           0.187 s
          | Total time for total energy evaluation     :        0.006 s           0.013 s

          Have a nice day.
------------------------------------------------------------
