  MPI-parallelism will be employed.
------------------------------------------------------------
          Invoking FHI-aims ...
          Version 160328_3
          Compiled on 2019/06/10 at 14:55:49 on host taito-login3.csc.fi.

          When using FHI-aims, please cite the following reference:

          Volker Blum, Ralf Gehrke, Felix Hanke, Paula Havu,
          Ville Havu, Xinguo Ren, Karsten Reuter, and Matthias Scheffler,
          'Ab Initio Molecular Simulations with Numeric Atom-Centered Orbitals',
          Computer Physics Communications 180, 2175-2196 (2009)

          For any questions about FHI-aims, please visit the aimsclub website
          with its forums and wiki. Contributions to both the forums and the
          wiki are warmly encouraged - they are for you, and everyone is welcome there.

------------------------------------------------------------

  Date     :  20190722, Time     :  144514.044
  Time zero on CPU 1             :   0.569910000000000E-01  s.
  Internal wall clock time zero  :           333038714.044  s.

  Using        4 parallel tasks.
  Task        0 on host c798 reporting.
  Task        1 on host c798 reporting.
  Task        2 on host c798 reporting.
  Task        3 on host c798 reporting.

  Performing system and environment tests:
  | Environment variable OMP_NUM_THREADS correctly set to 1.
  | Maximum stacksize for task 0: unlimited
  | Maximum stacksize for task 1: unlimited
  | Maximum stacksize for task 2: unlimited
  | Maximum stacksize for task 3: unlimited
  | Current stacksize for task 0: 1024 [Mb]
  | Current stacksize for task 1: 1024 [Mb]
  | Current stacksize for task 2: 1024 [Mb]
  | Current stacksize for task 3: 1024 [Mb]
  | Checking for scalapack...
  | No scalapack compiled in.

  Obtaining array dimensions for all initial allocations:
  
  -----------------------------------------------------------------------
  Parsing control.in (first pass over file, find array dimensions only).
  The contents of control.in will be repeated verbatim below
  unless switched off by setting 'verbatim_writeout .false.' .
  in the first line of control.in .
  -----------------------------------------------------------------------
  
    #  Physical model settings
    #
  
    xc                            pbe
    charge                        1.0
    relativistic                  none
  #  default_initial_moment        0.0
    spin                          none
  #  vdw_correction_hirshfeld
  
    #  SCF convergence settings
    #
  
    sc_accuracy_rho               1E-4
    sc_accuracy_eev               1E-2
    sc_accuracy_etot              1E-8
    sc_iter_limit                 100
  
    #  Occupation settings
    #
  
    restart                       restart
  #  force_occupation_projector      5 1 1.0 5 5 # ion 4
  
    #  Relaxation
    #
  
    ####relax_geometry                bfgs    1.e-4
  
  
  ################################################################################
  #
  #  FHI-aims code project
  #  VB, Fritz-Haber Institut, 2007
  #
  #  Suggested "safe" defaults for O atom (to be pasted into control.in file)
  #
  ################################################################################
    species        O
  #     global species definitions
      nucleus             8
      mass                15.9994
  #
      l_hartree           8
  #
      cut_pot             4.0  2.0  1.0
      basis_dep_cutoff    0.d0
  #
      radial_base         36 7.0
      radial_multiplier   2
       angular_grids specified
        division   0.4087  110
        division   0.5181  194
        division   0.6184  302
        division   0.7315  434
        division   0.7934  590
  #      division   0.9656  770
  #      division   1.4041  974
  #      outer_grid 974
        outer_grid 590
  ################################################################################
  #
  #  Definition of "minimal" basis
  #
  ################################################################################
  #     valence basis states
      valence      2  s   2.
      valence      2  p   4.
  #     ion occupancy
      ion_occ      2  s   1.
      ion_occ      2  p   3.
  ################################################################################
  #
  #  Suggested additional basis functions. For production calculations,
  #  uncomment them one after another (the most important basis functions are
  #  listed first).
  #
  #  Constructed for dimers: 1.0 A, 1.208 A, 1.5 A, 2.0 A, 3.0 A
  #
  ################################################################################
  #  "First tier" - improvements: -699.05 meV to -159.38 meV
       hydro 2 p 1.8
       hydro 3 d 7.6
       hydro 3 s 6.4
  #  "Second tier" - improvements: -49.91 meV to -5.39 meV
       hydro 4 f 11.6
       hydro 3 p 6.2
       hydro 3 d 5.6
       hydro 5 g 17.6
       hydro 1 s 0.75
  #  "Third tier" - improvements: -2.83 meV to -0.50 meV
  #     ionic 2 p auto
  #     hydro 4 f 10.8
  #     hydro 4 d 4.7
  #     hydro 2 s 6.8
  #  "Fourth tier" - improvements: -0.40 meV to -0.12 meV
  #     hydro 3 p 5
  #     hydro 3 s 3.3
  #     hydro 5 g 15.6
  #     hydro 4 f 17.6
  #     hydro 4 d 14
  # Further basis functions - -0.08 meV and below
  #     hydro 3 s 2.1
  #     hydro 4 d 11.6
  #     hydro 3 p 16
  #     hydro 2 s 17.2
  compute_forces .true.
  final_forces_cleaned .true.
  output dipole
  
  -----------------------------------------------------------------------
  Completed first pass over input file control.in .
  -----------------------------------------------------------------------
  
  
  -----------------------------------------------------------------------
  Parsing geometry.in (first pass over file, find array dimensions only).
  The contents of geometry.in will be repeated verbatim below
  unless switched off by setting 'verbatim_writeout .false.' .
  in the first line of geometry.in .
  -----------------------------------------------------------------------
  
  #
  # temporary structure-file for finite-difference calculation of forces
  # displacement   0.0025 of \# atom     0 direction     1
  #
  atom   -0.00000000    0.00250000    0.04235921   O
  atom    0.00000000    0.00000000    1.16514079   O
  
  -----------------------------------------------------------------------
  Completed first pass over input file geometry.in .
  -----------------------------------------------------------------------
  

  Basic array size parameters:
  | Number of species                 :        1
  | Number of atoms                   :        2
  | Max. basis fn. angular momentum   :        4
  | Max. atomic/ionic basis occupied n:        2
  | Max. number of basis fn. types    :        2
  | Max. radial fns per species/type  :        8
  | Max. logarithmic grid size        :     1301
  | Max. radial integration grid size :       73
  | Max. angular integration grid size:      590
  | Max. angular grid division number :        8
  | Radial grid for Hartree potential :     1301
  | Number of spin channels           :        1

------------------------------------------------------------
          Reading file control.in.
------------------------------------------------------------
  XC: Using PBE gradient-corrected functionals.
  Charged system requested: Charge =   0.100000E+01.
  Non-relativistic treatment of kinetic energy.
  Spin treatment: No spin polarisation.
  Convergence accuracy of self-consistent charge density:  0.1000E-03
  Convergence accuracy of sum of eigenvalues:  0.1000E-01
  Convergence accuracy of total energy:  0.1000E-07
  Maximum number of s.-c. iterations  :   100
  Restart file specified as : restart
  | Reading information from existing file.
 
  Reading configuration options for species O                   .
  | Found nuclear charge :   8.0000
  | Found atomic mass :    15.9994000000000      amu
  | Found l_max for Hartree potential  :   8
  | Found cutoff potl. onset [A], width [A], scale factor :    4.00000    2.00000    1.00000
  | Threshold for basis-dependent cutoff potential is   0.000000E+00
  | Found data for basic radial integration grid :    36 points, outermost radius =    7.000 A
  | Found multiplier for basic radial grid :   2
  | Found angular grid specification: user-specified.
  | Specified grid contains     6 separate shells.
  | Check grid settings after all constraints further below.
  | Found free-atom valence shell :  2 s   2.000
  | Found free-atom valence shell :  2 p   4.000
  | No ionic wave fns used. Skipping ion_occ.
  | No ionic wave fns used. Skipping ion_occ.
  | Found hydrogenic basis function :  2 p   1.800
  | Found hydrogenic basis function :  3 d   7.600
  | Found hydrogenic basis function :  3 s   6.400
  | Found hydrogenic basis function :  4 f  11.600
  | Found hydrogenic basis function :  3 p   6.200
  | Found hydrogenic basis function :  3 d   5.600
  | Found hydrogenic basis function :  5 g  17.600
  | Found hydrogenic basis function :  1 s   0.750
  Species O                   : Missing cutoff potential type.
  Defaulting to exp(1/x)/(1-x)^2 type cutoff potential.
  Species O : No 'logarithmic' tag. Using default grid for free atom:
  | Default logarithmic grid data [bohr] : 0.1000E-03 0.1000E+03 0.1012E+01
  Species O : On-site basis accuracy parameter (for Gram-Schmidt orthonormalisation) not specified.
  Using default value basis_acc =  0.1000000E-03.
  Species O                   : Using default innermost maximum threshold i_radial=  2 for radial functions.
  Species O                   : Default cutoff onset for free atom density etc. : 0.40000000E+01 AA.
  Species O                   : Basic radial grid will be enhanced according to radial_multiplier =   2, to contain    73 grid points.
  Forces will be computed.
  Cleaning forces before final output.
  Dipole moment will be written out.
 
  Finished reading input file 'control.in'. Consistency checks are next.
 
  Target number of points in a grid batch is not set. Defaulting to  100
  Method for grid partitioning is not set. Defaulting to parallel hash+maxmin partitioning.
  Batch size limit is not set. Defaulting to    200
  By default, will store active basis functions for each batch.
  If in need of memory, prune_basis_once .false. can be used to disable this option.
  communication_type for Hartree potential was not specified.
  Defaulting to calc_hartree .
  Defaulting to Pulay charge density mixer.
  Pulay mixer: Number of relevant iterations not set.
  Defaulting to    8 iterations.
  Pulay mixer: Number of initial linear mixing iterations not set.
  Defaulting to    0 iterations.
  Work space size for distributed Hartree potential not set.
  Defaulting to   0.200000E+03 MB.
  Mixing parameter for charge density mixing has not been set.
  Using default: charge_mix_param =     0.2000.
  Algorithm-dependent basis array size parameters:
  | n_max_pulay                         :        8
  Geometry relaxation not requested: no relaxation will be performed.
  Force calculation: scf convergence accuracy of forces not set.
  Defaulting to  0.1000E-03 eV/A.
  Handling of forces: Unphysical translation and rotation will be removed from forces.
  No accuracy limit for integral partition fn. given. Defaulting to  0.1000E-14.
  No threshold value for u(r) in integrations given. Defaulting to  0.1000E-05.
  No occupation type (smearing scheme) given. Defaulting to Gaussian broadening, width =  0.1000E-01 eV.
  No accuracy for occupation numbers given. Defaulting to  0.1000E-07.
  No threshold value for occupation numbers given. Defaulting to  0.0000E+00.
  No accuracy for fermi level given. Defaulting to  0.1000E-19.
  Maximum # of iterations to find E_F not set. Defaulting to  200.
  Preferred method for the eigenvalue solver ('KS_method') not specified in 'control.in'.
  Calling blacs routine to test compilation state
  The best choice would be 'elpa', but your version of FHI-aims is compiled without scalapack support.
  Defaulting to 'lapack_fast' instead (serial solution, time will not improve with more CPUs).
  Will not use alltoall communication since running on < 1024 CPUs.
  Threshold for basis singularities not set.
  Default threshold for basis singularities:  0.1000E-04
  partition_type (choice of integration weights) for integrals was not specified.
  | Using a version of the partition function of Stratmann and coworkers ('stratmann_smoother').
  | At each grid point, the set of atoms used to build the partition table is smoothly restricted to
  | only those atoms whose free-atom density would be non-zero at that grid point.
  Partitioning for Hartree potential was not defined. Using partition_type for integrals.
  | Adjusted default value of keyword multip_moments_threshold to:       0.10000000E-11
  | This value may affect high angular momentum components of the Hartree potential in periodic systems.
  No q(lm)/r^(l+1) cutoff set for long-range Hartree potential.
  | Using default value of  0.100000E-09 .
  | Verify using the multipole_threshold keyword.
  Defaulting to new monopole extrapolation.
  Density update method: automatic selection selected.
------------------------------------------------------------


------------------------------------------------------------
          Reading geometry description geometry.in.
------------------------------------------------------------
 * Warning: Initial charge and total charge of the system are inconsistent.
 * Selected charge in control.in:     1.0000* Sum of initial charges in geometry.in:     0.0000
  Input structure read successfully.
  The structure contains        2 atoms,  and a total of         15.000 electrons.

  Input geometry:
  | No unit cell requested.
  | Atomic structure:
  |       Atom                x [A]            y [A]            z [A]
  |    1: Species O              0.000000         0.002500         0.042359
  |    2: Species O              0.000000         0.000000         1.165141
  |

  | The smallest distance between any two atoms is         1.12278436 AA.
  |
  | The first atom of this pair is atom number                      1 .
  | The second atom of this pair is atom number                     2 .

  Number of empty states per atom not set in control.in - providing a guess from actual geometry.
  | Total number of empty states used during s.c.f. cycle:        6
  If you use a very high smearing, use empty_states (per atom!) in control.in to increase this value.

  Structure-dependent array size parameters: 
  | Maximum number of distinct radial functions  :       11
  | Maximum number of basis functions            :       78
  | Number of Kohn-Sham states (occupied + empty):       14
------------------------------------------------------------

------------------------------------------------------------
          Preparing all fixed parts of the calculation.
------------------------------------------------------------
  Determining machine precision:
    2.225073858507201E-308
  Setting up grids for atomic and cluster calculations.

  Creating wave function, potential, and density for free atoms.

  Species: O

  List of occupied orbitals and eigenvalues:
    n    l              occ      energy [Ha]    energy [eV]
    1    0           2.0000       -18.898576      -514.2564
    2    0           2.0000        -0.878795       -23.9132
    2    1           4.0000        -0.332075        -9.0362

  Creating fixed part of basis set: Ionic, confined, hydrogenic.
 
  O                    hydrogenic:
 
  List of hydrogenic basis orbitals: 
    n    l      effective z      eigenvalue [eV]  inner max. [A]     outer max. [A]     outer radius [A]   
    2    1         1.800000       -11.0118           1.178562           1.178562           5.432602
    3    2         7.600000       -87.3183           0.624125           0.624125           4.634338
    3    0         6.400000       -61.9210           0.061167           1.081902           5.110480
    4    3        11.600000      -114.4239           0.731631           0.731631           4.522403
    3    1         6.200000       -58.1114           0.255680           1.030270           5.110480
    3    2         5.600000       -47.4083           0.847233           0.847233           5.173339
    5    4        17.600000      -168.5800           0.749740           0.749740           4.051222
    1    0         0.750000        -7.6499           0.705284           0.705284           5.366593
 

  Adding cutoff potential to free-atom effective potential.
  Creating atomic-like basis functions for current effective potential.

  Species O                   :

  List of atomic basis orbitals and eigenvalues:
    n    l      energy [Ha]    energy [eV]    outer radius [A]
    1    0       -18.898576      -514.2564       1.415765
    2    0        -0.878795       -23.9132       5.048385
    2    1        -0.332075        -9.0362       5.301386

  Assembling full basis from fixed parts.
  | Species O :   atomic orbital   1 s accepted.
  | Species O :   atomic orbital   2 s accepted.
  | Species O :    hydro orbital   3 s accepted.
  | Species O :    hydro orbital   1 s accepted.
  | Species O :   atomic orbital   2 p accepted.
  | Species O :    hydro orbital   2 p accepted.
  | Species O :    hydro orbital   3 p accepted.
  | Species O :    hydro orbital   3 d accepted.
  | Species O :    hydro orbital   3 d accepted.
  | Species O :    hydro orbital   4 f accepted.
  | Species O :    hydro orbital   5 g accepted.
 
  Basis size parameters after reduction:
  | Total number of radial functions:       11
  | Total number of basis functions :       78
 
  Testing on-site integration grid accuracy.
  |  Species  Function  <phi|h_atom|phi> (log., in eV)  <phi|h_atom|phi> (rad., in eV)
           1        1               -514.2564144315               -514.2564099626
           1        2                -23.9132357102                -23.9132356433
           1        3                 17.5398579759                 17.5398338425
           1        4                 14.5207278950                 14.5207740449
           1        5                 -9.0362392718                 -9.0362394845
           1        6                  7.9056275927                  7.9056237490
           1        7                 33.4201658992                 33.4201612015
           1        8                 45.8231952720                 45.8231953152
           1        9                 52.1937595491                 52.1937593440
           1       10                 85.4062894308                 85.4062894578
           1       11                142.0975701139                142.0975701391

  Preparing densities etc. for the partition functions (integrals / Hartree potential).

  Preparations completed.
  max(cpu_time)          :      0.144 s.
  Wall clock time (cpu1) :      0.152 s.
------------------------------------------------------------

------------------------------------------------------------
          Begin self-consistency loop: Initialization.

          Date     :  20190722, Time     :  144514.209
------------------------------------------------------------

  Initializing index lists of integration centers etc. from given atomic structure:
  | Number of centers in hartree potential         :         2
  | Number of centers in hartree multipole         :         2
  | Number of centers in electron density summation:         2
  | Number of centers in basis integrals           :         2
  | Number of centers in integrals                 :         2
  | Number of centers in hamiltonian               :         2
  Partitioning the integration grid into batches with parallel hashing+maxmin method.
  | Number of batches:      795
  | Maximal batch size:     116
  | Minimal batch size:      49
  | Average batch size:      66.994
  | Standard deviation of batch sizes:      21.599

  Integration load balanced across     4 MPI tasks.
  Work distribution over tasks is as follows:
  Task     0 has      13331 integration points.
  Task     1 has      13309 integration points.
  Task     2 has      13344 integration points.
  Task     3 has      13276 integration points.
  Initializing partition tables, free-atom densities, potentials, etc. across the integration grid (initialize_grid_storage).
  | initialize_grid_storage: Actual outermost partition radius vs. multipole_radius_free
  | (-- VB: in principle, multipole_radius_free should be larger, hence this output)
  | Species        1: Confinement radius =              6.000000000000000 AA, multipole_radius_free =              6.064445521808699 AA.
  | Species        1: outer_partition_radius set to              6.064445521808699 AA .
  | Original list of interatomic distances with           2 x          2 entries is created.
  | Net number of integration points:    53260
  | of which are non-zero points    :    49990
  Obtaining max. number of non-zero basis functions in each batch (get_n_compute_maxes).
  | Maximal number of non-zero basis functions:       78 in task     0
  | Maximal number of non-zero basis functions:       78 in task     1
  | Maximal number of non-zero basis functions:       78 in task     2
  | Maximal number of non-zero basis functions:       78 in task     3
  Selecting the method for density update.
  Loop over occupied states selected for charge density update.
  Integrating Hamiltonian matrix: batch-based integration.
  Time summed over all CPUs for integration: real work        0.169 s, elapsed        0.171 s
  Integrating overlap matrix.
  Time summed over all CPUs for integration: real work        0.061 s, elapsed        0.062 s

  Reading cluster restart information from file restart
  Writing Kohn-Sham eigenvalues.

  State    Occupation    Eigenvalue [Ha]    Eigenvalue [eV]
      1       2.00000         -18.889873         -514.01961
      2       2.00000         -18.889654         -514.01363
      3       2.00000          -1.267293          -34.48480
      4       2.00000          -0.701439          -19.08712
      5       2.00000          -0.502548          -13.67503
      6       2.00000          -0.502548          -13.67503
      7       2.00000          -0.494805          -13.46433
      8       1.00000          -0.186832           -5.08397
      9       1.00000          -0.186832           -5.08397
     10       0.00000           0.098748            2.68707
     11       0.00000           0.105369            2.86723
     12       0.00000           0.133112            3.62217
     13       0.00000           0.000000            0.00000
     14       0.00000           0.000000            0.00000

  Highest occupied state (VBM) at     -5.08396601 eV
  | Occupation number:      1.00000352

  Lowest unoccupied state (CBM) at    -5.08396594 eV
  | Occupation number:      0.99999648

  Overall HOMO-LUMO gap:      0.00000006 eV.
*** get_ev_sum_p0 expected pure occ_numbers
*** sum(occ_numbers) =  1.6000000000208455E+01 instead of  1.5000000000000000E+01
  Calculating total energy contributions from superposition of free atom densities.
*** get_entropy_correction expected pure occ_numbers
*** sum(occ_numbers) =  1.6000000000208455E+01 instead of  1.5000000000000000E+01
*** get_penalty_energy expected pure occ_numbers
*** sum(occ_numbers) =  1.6000000000208455E+01 instead of  1.5000000000000000E+01

  Total energy components:
  | Sum of eigenvalues            :         -82.86998563 Ha       -2255.00704255 eV
  | XC energy correction          :         -16.82076999 Ha        -457.71643990 eV
  | XC potential correction       :          21.62723248 Ha         588.50693867 eV
  | Free-atom electrostatic energy:         -71.50995472 Ha       -1945.88487358 eV
  | Hartree energy correction     :           0.00000000 Ha           0.00000000 eV
  | Entropy correction            :          -0.00020734 Ha          -0.00564190 eV
  | ---------------------------
  | Total energy                  :        -149.57347787 Ha       -4070.10141737 eV
  | Total energy, T -> 0          :        -149.57368521 Ha       -4070.10705927 eV  <-- do not rely on this value for anything but (periodic) metals
  | Electronic free energy        :        -149.57389254 Ha       -4070.11270116 eV

  Derived energy quantities:
  | Kinetic energy                :         150.56069439 Ha        4096.96494569 eV
  | Electrostatic energy          :        -283.31340227 Ha       -7709.34992316 eV
  | Energy correction for multipole
  | error in Hartree potential    :           0.00000000 Ha           0.00000000 eV
  | Sum of eigenvalues per atom                           :       -1127.50352128 eV
  | Total energy (T->0) per atom                          :       -2035.05352963 eV  <-- do not rely on this value for anything but (periodic) metals
  | Electronic free energy per atom                       :       -2035.05635058 eV
  Initialize hartree_potential_storage
  Max. number of atoms included in rho_multipole:            2

  End scf initialization - timings             :  max(cpu_time)    wall_clock(cpu1)
  | Time for scf. initialization               :        0.123 s           0.123 s
  | Boundary condition initialization          :        0.000 s           0.001 s
  | Integration                                :        0.059 s           0.059 s
  | Solution of K.-S. eqns.                    :        0.001 s           0.001 s
  | Grid partitioning                          :        0.021 s           0.022 s
  | Preloading free-atom quantities on grid    :        0.017 s           0.018 s
  | Free-atom superposition energy             :        0.009 s           0.009 s
  | Total energy evaluation                    :        0.000 s           0.001 s
------------------------------------------------------------

------------------------------------------------------------
          Initial SCF-cycle to compute last known
          density from restart information.

  Date     :  20190722, Time     :  144514.333
------------------------------------------------------------
*** scf_solver:charge expected kweighted occ_numbers
*** sum(occ_numbers) =  1.6000000000208455E+01 instead of  1.5000000000000000E+01
  Evaluating new KS density.
*** update_density_and_forces_p2 expected kweighted occ_numbers
*** sum(occ_numbers) =  1.6000000000208455E+01 instead of  1.5000000000000000E+01
  Integration grid: deviation in total charge (<rho> - N_e) =   1.000000E+00

  Evaluating partitioned Hartree potential by multipole expansion.
  | Analytical far-field extrapolation by fixed multipoles:
  | Hartree multipole sum: apparent total charge =  -0.177415E-06
  Summing up the Hartree potential.
  Time summed over all CPUs for potential: real work        0.099 s, elapsed        0.100 s
  | RMS charge density error from multipole expansion :   0.646460E-03

  Integrating Hamiltonian matrix: batch-based integration.
  Time summed over all CPUs for integration: real work        0.165 s, elapsed        0.167 s

  Updating Kohn-Sham eigenvalues, eigenvectors, occupation numbers, and Fermi level.
  Solving generalized eigenproblem
  Updating Kohn-Sham eigenvalues and eigenfunctions.
  Transforming overlap matrix and checking for singularities.
  Overlap matrix is nonsingular:
  | Lowest eigenvalue:  0.185756E-03
  Solving real generalised eigenvalue problem by standard LAPACK (fast)
  Determining occupation numbers for Kohn-Sham eigenstates.
  | Chemical potential (Fermi level) in eV                 : -.50887374E+01
  | Error in electron count due to remaining E_F inaccuracy: 0.15504042E-10
  | Maximum occupation number of highest empty state:  0.00E+00

  Highest occupied state (VBM) at    -13.46433324 eV
  | Occupation number:      2.00000000

  Lowest unoccupied state (CBM) at    -5.08396992 eV
  | Occupation number:      0.50017106

  Overall HOMO-LUMO gap:      8.38036332 eV.

  Total energy components:
  | Sum of eigenvalues            :         -82.68315466 Ha       -2249.92311303 eV
  | XC energy correction          :         -16.91595021 Ha        -460.30642546 eV
  | XC potential correction       :          21.75097684 Ha         591.87419396 eV
  | Free-atom electrostatic energy:         -71.50995472 Ha       -1945.88487358 eV
  | Hartree energy correction     :          -0.65623130 Ha         -17.85696222 eV
  | Entropy correction            :          -0.00016515 Ha          -0.00449404 eV
  | ---------------------------
  | Total energy                  :        -150.01431406 Ha       -4082.09718034 eV
  | Total energy, T -> 0          :        -150.01447921 Ha       -4082.10167438 eV  <-- do not rely on this value for anything but (periodic) metals
  | Electronic free energy        :        -150.01464436 Ha       -4082.10616842 eV

  Derived energy quantities:
  | Kinetic energy                :         150.39445879 Ha        4092.44144479 eV
  | Electrostatic energy          :        -283.49282263 Ha       -7714.23219966 eV
  | Energy correction for multipole
  | error in Hartree potential    :          -0.00059256 Ha          -0.01612449 eV
  | Sum of eigenvalues per atom                           :       -1124.96155652 eV
  | Total energy (T->0) per atom                          :       -2041.05083719 eV  <-- do not rely on this value for anything but (periodic) metals
  | Electronic free energy per atom                       :       -2041.05308421 eV

  Self-consistency convergence accuracy:
  | Change of charge density      :  0.1358E+00
  | Change of sum of eigenvalues  :  0.5084E+01 eV
  | Change of total energy        : -0.1200E+02 eV

  End self-consistency iteration #     0       :  max(cpu_time)    wall_clock(cpu1)
  | Time for this iteration                    :        0.118 s           0.117 s
  | Charge density update                      :        0.033 s           0.032 s
  | Density mixing                             :        0.000 s           0.001 s
  | Hartree multipole update                   :        0.005 s           0.004 s
  | Hartree multipole summation                :        0.026 s           0.027 s
  | Integration                                :        0.042 s           0.042 s
  | Solution of K.-S. eqns.                    :        0.008 s           0.008 s
  | Total energy evaluation                    :        0.001 s           0.001 s
------------------------------------------------------------

------------------------------------------------------------
          Begin self-consistency iteration #    1

  Date     :  20190722, Time     :  144514.452
------------------------------------------------------------
  Evaluating new KS density.
  Integration grid: deviation in total charge (<rho> - N_e) =   1.549694E-11
  Pulay mixing of updated and previous charge densities.

  Evaluating partitioned Hartree potential by multipole expansion.
  | Analytical far-field extrapolation by fixed multipoles:
  | Hartree multipole sum: apparent total charge =   0.200000E+00
  Summing up the Hartree potential.
  Time summed over all CPUs for potential: real work        0.096 s, elapsed        0.099 s
  | RMS charge density error from multipole expansion :   0.568934E-03

  Integrating Hamiltonian matrix: batch-based integration.
  Time summed over all CPUs for integration: real work        0.165 s, elapsed        0.167 s

  Updating Kohn-Sham eigenvalues, eigenvectors, occupation numbers, and Fermi level.
  Solving generalized eigenproblem
  Updating Kohn-Sham eigenvalues and eigenfunctions.
  Solving real generalised eigenvalue problem by standard LAPACK (fast)
  Determining occupation numbers for Kohn-Sham eigenstates.
  | Chemical potential (Fermi level) in eV                 : -.81702211E+01
  | Error in electron count due to remaining E_F inaccuracy: 0.77733375E-11
  | Maximum occupation number of highest empty state:  0.00E+00

  Writing Kohn-Sham eigenvalues.

  State    Occupation    Eigenvalue [Ha]    Eigenvalue [eV]
      1       2.00000         -19.044718         -518.23316
      2       2.00000         -19.044500         -518.22721
      3       2.00000          -1.391441          -37.86304
      4       2.00000          -0.812974          -22.12216
      5       2.00000          -0.616513          -16.77617
      6       2.00000          -0.616512          -16.77613
      7       2.00000          -0.606202          -16.49561
      8       0.50152          -0.300075           -8.16547
      9       0.49848          -0.300074           -8.16543
     10       0.00000           0.042790            1.16439
     11       0.00000           0.050113            1.36365
     12       0.00000           0.078170            2.12711
     13       0.00000           0.078170            2.12712
     14       0.00000           0.157547            4.28708

  Highest occupied state (VBM) at    -16.49560637 eV
  | Occupation number:      2.00000000

  Lowest unoccupied state (CBM) at    -8.16546871 eV
  | Occupation number:      0.50152274

  Overall HOMO-LUMO gap:      8.33013767 eV.

  Total energy components:
  | Sum of eigenvalues            :         -84.56579680 Ha       -2301.15241232 eV
  | XC energy correction          :         -16.76353528 Ha        -456.15900415 eV
  | XC potential correction       :          21.55138843 Ha         586.44311698 eV
  | Free-atom electrostatic energy:         -71.50995472 Ha       -1945.88487358 eV
  | Hartree energy correction     :           1.36996805 Ha          37.27872723 eV
  | Entropy correction            :          -0.00016515 Ha          -0.00449403 eV
  | ---------------------------
  | Total energy                  :        -149.91793034 Ha       -4079.47444584 eV
  | Total energy, T -> 0          :        -149.91809549 Ha       -4079.47893987 eV  <-- do not rely on this value for anything but (periodic) metals
  | Electronic free energy        :        -149.91826064 Ha       -4079.48343389 eV

  Derived energy quantities:
  | Kinetic energy                :         149.84166542 Ha        4077.39917185 eV
  | Electrostatic energy          :        -282.99606047 Ha       -7700.71461354 eV
  | Energy correction for multipole
  | error in Hartree potential    :          -0.00047716 Ha          -0.01298415 eV
  | Sum of eigenvalues per atom                           :       -1150.57620616 eV
  | Total energy (T->0) per atom                          :       -2039.73946993 eV  <-- do not rely on this value for anything but (periodic) metals
  | Electronic free energy per atom                       :       -2039.74171695 eV

  Self-consistency convergence accuracy:
  | Change of charge density      :  0.2168E+00
  | Change of sum of eigenvalues  : -0.5123E+02 eV
  | Change of total energy        :  0.2623E+01 eV

  End self-consistency iteration #     1       :  max(cpu_time)    wall_clock(cpu1)
  | Time for this iteration                    :        0.105 s           0.105 s
  | Charge density update                      :        0.029 s           0.030 s
  | Density mixing                             :        0.001 s           0.001 s
  | Hartree multipole update                   :        0.004 s           0.004 s
  | Hartree multipole summation                :        0.026 s           0.025 s
  | Integration                                :        0.042 s           0.042 s
  | Solution of K.-S. eqns.                    :        0.001 s           0.002 s
  | Total energy evaluation                    :        0.000 s           0.001 s
------------------------------------------------------------

------------------------------------------------------------
          Begin self-consistency iteration #    2

  Date     :  20190722, Time     :  144514.561
------------------------------------------------------------
  Evaluating new KS density.
  Integration grid: deviation in total charge (<rho> - N_e) =   7.819523E-12
  Pulay mixing of updated and previous charge densities.

  Evaluating partitioned Hartree potential by multipole expansion.
  | Analytical far-field extrapolation by fixed multipoles:
  | Hartree multipole sum: apparent total charge =   0.551816E+00
  Summing up the Hartree potential.
  Time summed over all CPUs for potential: real work        0.097 s, elapsed        0.101 s
  | RMS charge density error from multipole expansion :   0.499240E-03

  Integrating Hamiltonian matrix: batch-based integration.
  Time summed over all CPUs for integration: real work        0.168 s, elapsed        0.172 s

  Updating Kohn-Sham eigenvalues, eigenvectors, occupation numbers, and Fermi level.
  Solving generalized eigenproblem
  Updating Kohn-Sham eigenvalues and eigenfunctions.
  Solving real generalised eigenvalue problem by standard LAPACK (fast)
  Determining occupation numbers for Kohn-Sham eigenstates.
  | Chemical potential (Fermi level) in eV                 : -.13091996E+02
  | Error in electron count due to remaining E_F inaccuracy: -.78870244E-12
  | Maximum occupation number of highest empty state:  0.00E+00

  Highest occupied state (VBM) at    -21.31570173 eV
  | Occupation number:      2.00000000

  Lowest unoccupied state (CBM) at   -13.08757266 eV
  | Occupation number:      0.53159809

  Overall HOMO-LUMO gap:      8.22812907 eV.

  Total energy components:
  | Sum of eigenvalues            :         -87.47609220 Ha       -2380.34557939 eV
  | XC energy correction          :         -16.54917261 Ha        -450.32589909 eV
  | XC potential correction       :          21.27065035 Ha         578.80384523 eV
  | Free-atom electrostatic energy:         -71.50995472 Ha       -1945.88487358 eV
  | Hartree energy correction     :           4.43972882 Ha         120.81116805 eV
  | Entropy correction            :          -0.00016495 Ha          -0.00448848 eV
  | ---------------------------
  | Total energy                  :        -149.82484036 Ha       -4076.94133879 eV
  | Total energy, T -> 0          :        -149.82500531 Ha       -4076.94582727 eV  <-- do not rely on this value for anything but (periodic) metals
  | Electronic free energy        :        -149.82517026 Ha       -4076.95031575 eV

  Derived energy quantities:
  | Kinetic energy                :         149.14692352 Ha        4058.49428288 eV
  | Electrostatic energy          :        -282.42259127 Ha       -7685.10972258 eV
  | Energy correction for multipole
  | error in Hartree potential    :          -0.00037145 Ha          -0.01010764 eV
  | Sum of eigenvalues per atom                           :       -1190.17278970 eV
  | Total energy (T->0) per atom                          :       -2038.47291364 eV  <-- do not rely on this value for anything but (periodic) metals
  | Electronic free energy per atom                       :       -2038.47515788 eV

  Self-consistency convergence accuracy:
  | Change of charge density      :  0.1326E+00
  | Change of sum of eigenvalues  : -0.7919E+02 eV
  | Change of total energy        :  0.2533E+01 eV

  End self-consistency iteration #     2       :  max(cpu_time)    wall_clock(cpu1)
  | Time for this iteration                    :        0.109 s           0.107 s
  | Charge density update                      :        0.031 s           0.030 s
  | Density mixing                             :        0.001 s           0.001 s
  | Hartree multipole update                   :        0.005 s           0.004 s
  | Hartree multipole summation                :        0.027 s           0.026 s
  | Integration                                :        0.043 s           0.044 s
  | Solution of K.-S. eqns.                    :        0.001 s           0.001 s
  | Total energy evaluation                    :        0.000 s           0.001 s
------------------------------------------------------------

------------------------------------------------------------
          Begin self-consistency iteration #    3

  Date     :  20190722, Time     :  144514.669
------------------------------------------------------------
  Evaluating new KS density.
  Integration grid: deviation in total charge (<rho> - N_e) =  -7.478462E-13
  Pulay mixing of updated and previous charge densities.

  Evaluating partitioned Hartree potential by multipole expansion.
  | Analytical far-field extrapolation by fixed multipoles:
  | Hartree multipole sum: apparent total charge =   0.814584E+00
  Summing up the Hartree potential.
  Time summed over all CPUs for potential: real work        0.095 s, elapsed        0.096 s
  | RMS charge density error from multipole expansion :   0.477520E-03

  Integrating Hamiltonian matrix: batch-based integration.
  Time summed over all CPUs for integration: real work        0.165 s, elapsed        0.167 s

  Updating Kohn-Sham eigenvalues, eigenvectors, occupation numbers, and Fermi level.
  Solving generalized eigenproblem
  Updating Kohn-Sham eigenvalues and eigenfunctions.
  Solving real generalised eigenvalue problem by standard LAPACK (fast)
  Determining occupation numbers for Kohn-Sham eigenstates.
  | Chemical potential (Fermi level) in eV                 : -.15856146E+02
  | Error in electron count due to remaining E_F inaccuracy: 0.13930190E-10
  | Maximum occupation number of highest empty state:  0.00E+00

  Highest occupied state (VBM) at    -24.03469402 eV
  | Occupation number:      2.00000000

  Lowest unoccupied state (CBM) at   -15.85611051 eV
  | Occupation number:      0.99600840

  Overall HOMO-LUMO gap:      8.17858351 eV.

  Total energy components:
  | Sum of eigenvalues            :         -88.97744607 Ha       -2421.19949684 eV
  | XC energy correction          :         -16.47501801 Ha        -448.30804982 eV
  | XC potential correction       :          21.17342770 Ha         576.15828240 eV
  | Free-atom electrostatic energy:         -71.50995472 Ha       -1945.88487358 eV
  | Hartree energy correction     :           5.99047926 Ha         163.00923456 eV
  | Entropy correction            :          -0.00010531 Ha          -0.00286566 eV
  | ---------------------------
  | Total energy                  :        -149.79851184 Ha       -4076.22490328 eV
  | Total energy, T -> 0          :        -149.79861715 Ha       -4076.22776894 eV  <-- do not rely on this value for anything but (periodic) metals
  | Electronic free energy        :        -149.79872246 Ha       -4076.23063460 eV

  Derived energy quantities:
  | Kinetic energy                :         149.23453019 Ha        4060.87818154 eV
  | Electrostatic energy          :        -282.55802401 Ha       -7688.79503501 eV
  | Energy correction for multipole
  | error in Hartree potential    :          -0.00045795 Ha          -0.01246155 eV
  | Sum of eigenvalues per atom                           :       -1210.59974842 eV
  | Total energy (T->0) per atom                          :       -2038.11388447 eV  <-- do not rely on this value for anything but (periodic) metals
  | Electronic free energy per atom                       :       -2038.11531730 eV

  Self-consistency convergence accuracy:
  | Change of charge density      :  0.5988E-01
  | Change of sum of eigenvalues  : -0.4085E+02 eV
  | Change of total energy        :  0.7164E+00 eV

  End self-consistency iteration #     3       :  max(cpu_time)    wall_clock(cpu1)
  | Time for this iteration                    :        0.104 s           0.105 s
  | Charge density update                      :        0.030 s           0.030 s
  | Density mixing                             :        0.002 s           0.002 s
  | Hartree multipole update                   :        0.005 s           0.004 s
  | Hartree multipole summation                :        0.025 s           0.024 s
  | Integration                                :        0.042 s           0.041 s
  | Solution of K.-S. eqns.                    :        0.001 s           0.002 s
  | Total energy evaluation                    :        0.001 s           0.001 s
------------------------------------------------------------

------------------------------------------------------------
          Begin self-consistency iteration #    4

  Date     :  20190722, Time     :  144514.775
------------------------------------------------------------
  Evaluating new KS density.
  Integration grid: deviation in total charge (<rho> - N_e) =   1.404388E-11
  Pulay mixing of updated and previous charge densities.

  Evaluating partitioned Hartree potential by multipole expansion.
  | Analytical far-field extrapolation by fixed multipoles:
  | Hartree multipole sum: apparent total charge =   0.102181E+01
  Summing up the Hartree potential.
  Time summed over all CPUs for potential: real work        0.097 s, elapsed        0.099 s
  | RMS charge density error from multipole expansion :   0.484835E-03

  Integrating Hamiltonian matrix: batch-based integration.
  Time summed over all CPUs for integration: real work        0.166 s, elapsed        0.167 s

  Updating Kohn-Sham eigenvalues, eigenvectors, occupation numbers, and Fermi level.
  Solving generalized eigenproblem
  Updating Kohn-Sham eigenvalues and eigenfunctions.
  Solving real generalised eigenvalue problem by standard LAPACK (fast)
  Determining occupation numbers for Kohn-Sham eigenstates.
  | Chemical potential (Fermi level) in eV                 : -.17978872E+02
  | Error in electron count due to remaining E_F inaccuracy: -.73233526E-08
  | Maximum occupation number of highest empty state:  0.00E+00

  Highest occupied state (VBM) at    -26.13291468 eV
  | Occupation number:      2.00000000

  Lowest unoccupied state (CBM) at   -17.97542318 eV
  | Occupation number:      0.62574098

  Overall HOMO-LUMO gap:      8.15749150 eV.

  Total energy components:
  | Sum of eigenvalues            :         -90.12676468 Ha       -2452.47404737 eV
  | XC energy correction          :         -16.42245490 Ha        -446.87773472 eV
  | XC potential correction       :          21.10460285 Ha         574.28546290 eV
  | Free-atom electrostatic energy:         -71.50995472 Ha       -1945.88487358 eV
  | Hartree energy correction     :           7.16096796 Ha         194.85985243 eV
  | Entropy correction            :          -0.00016190 Ha          -0.00440552 eV
  | ---------------------------
  | Total energy                  :        -149.79360349 Ha       -4076.09134034 eV
  | Total energy, T -> 0          :        -149.79376539 Ha       -4076.09574586 eV  <-- do not rely on this value for anything but (periodic) metals
  | Electronic free energy        :        -149.79392729 Ha       -4076.10015139 eV

  Derived energy quantities:
  | Kinetic energy                :         149.30466257 Ha        4062.78658091 eV
  | Electrostatic energy          :        -282.67581117 Ha       -7692.00018653 eV
  | Energy correction for multipole
  | error in Hartree potential    :          -0.00053311 Ha          -0.01450658 eV
  | Sum of eigenvalues per atom                           :       -1226.23702368 eV
  | Total energy (T->0) per atom                          :       -2038.04787293 eV  <-- do not rely on this value for anything but (periodic) metals
  | Electronic free energy per atom                       :       -2038.05007569 eV

  Self-consistency convergence accuracy:
  | Change of charge density      :  0.1763E+00
  | Change of sum of eigenvalues  : -0.3127E+02 eV
  | Change of total energy        :  0.1336E+00 eV

  End self-consistency iteration #     4       :  max(cpu_time)    wall_clock(cpu1)
  | Time for this iteration                    :        0.107 s           0.106 s
  | Charge density update                      :        0.030 s           0.029 s
  | Density mixing                             :        0.002 s           0.003 s
  | Hartree multipole update                   :        0.004 s           0.004 s
  | Hartree multipole summation                :        0.026 s           0.026 s
  | Integration                                :        0.042 s           0.042 s
  | Solution of K.-S. eqns.                    :        0.001 s           0.001 s
  | Total energy evaluation                    :        0.001 s           0.001 s
------------------------------------------------------------

------------------------------------------------------------
          Begin self-consistency iteration #    5

  Date     :  20190722, Time     :  144514.882
------------------------------------------------------------
  Evaluating new KS density.
  Integration grid: deviation in total charge (<rho> - N_e) =  -7.323369E-09
  Pulay mixing of updated and previous charge densities.

  Evaluating partitioned Hartree potential by multipole expansion.
  | Analytical far-field extrapolation by fixed multipoles:
  | Hartree multipole sum: apparent total charge =   0.993429E+00
  Summing up the Hartree potential.
  Time summed over all CPUs for potential: real work        0.097 s, elapsed        0.101 s
  | RMS charge density error from multipole expansion :   0.482541E-03

  Integrating Hamiltonian matrix: batch-based integration.
  Time summed over all CPUs for integration: real work        0.167 s, elapsed        0.170 s

  Updating Kohn-Sham eigenvalues, eigenvectors, occupation numbers, and Fermi level.
  Solving generalized eigenproblem
  Updating Kohn-Sham eigenvalues and eigenfunctions.
  Solving real generalised eigenvalue problem by standard LAPACK (fast)
  Determining occupation numbers for Kohn-Sham eigenstates.
  | Chemical potential (Fermi level) in eV                 : -.17479172E+02
  | Error in electron count due to remaining E_F inaccuracy: -.75073103E-09
  | Maximum occupation number of highest empty state:  0.00E+00

  Highest occupied state (VBM) at    -25.64661728 eV
  | Occupation number:      2.00000000

  Lowest unoccupied state (CBM) at   -17.47519324 eV
  | Occupation number:      0.57361066

  Overall HOMO-LUMO gap:      8.17142404 eV.

  Total energy components:
  | Sum of eigenvalues            :         -89.82260865 Ha       -2444.19754086 eV
  | XC energy correction          :         -16.44797811 Ha        -447.57225647 eV
  | XC potential correction       :          21.13803040 Ha         575.19507265 eV
  | Free-atom electrostatic energy:         -71.50995472 Ha       -1945.88487358 eV
  | Hartree energy correction     :           6.84940385 Ha         186.38176174 eV
  | Entropy correction            :          -0.00016404 Ha          -0.00446383 eV
  | ---------------------------
  | Total energy                  :        -149.79310724 Ha       -4076.07783652 eV
  | Total energy, T -> 0          :        -149.79327128 Ha       -4076.08230035 eV  <-- do not rely on this value for anything but (periodic) metals
  | Electronic free energy        :        -149.79343532 Ha       -4076.08676418 eV

  Derived energy quantities:
  | Kinetic energy                :         149.43785561 Ha        4066.41094788 eV
  | Electrostatic energy          :        -282.78298474 Ha       -7694.91652792 eV
  | Energy correction for multipole
  | error in Hartree potential    :          -0.00055373 Ha          -0.01506764 eV
  | Sum of eigenvalues per atom                           :       -1222.09877043 eV
  | Total energy (T->0) per atom                          :       -2038.04115017 eV  <-- do not rely on this value for anything but (periodic) metals
  | Electronic free energy per atom                       :       -2038.04338209 eV

  Self-consistency convergence accuracy:
  | Change of charge density      :  0.4820E-01
  | Change of sum of eigenvalues  :  0.8277E+01 eV
  | Change of total energy        :  0.1350E-01 eV

  End self-consistency iteration #     5       :  max(cpu_time)    wall_clock(cpu1)
  | Time for this iteration                    :        0.108 s           0.108 s
  | Charge density update                      :        0.030 s           0.030 s
  | Density mixing                             :        0.002 s           0.003 s
  | Hartree multipole update                   :        0.004 s           0.004 s
  | Hartree multipole summation                :        0.026 s           0.026 s
  | Integration                                :        0.043 s           0.043 s
  | Solution of K.-S. eqns.                    :        0.001 s           0.001 s
  | Total energy evaluation                    :        0.000 s           0.001 s
------------------------------------------------------------

------------------------------------------------------------
          Begin self-consistency iteration #    6

  Date     :  20190722, Time     :  144514.991
------------------------------------------------------------
  Evaluating new KS density.
  Integration grid: deviation in total charge (<rho> - N_e) =  -7.506813E-10
  Pulay mixing of updated and previous charge densities.

  Evaluating partitioned Hartree potential by multipole expansion.
  | Analytical far-field extrapolation by fixed multipoles:
  | Hartree multipole sum: apparent total charge =   0.998727E+00
  Summing up the Hartree potential.
  Time summed over all CPUs for potential: real work        0.096 s, elapsed        0.098 s
  | RMS charge density error from multipole expansion :   0.493870E-03

  Integrating Hamiltonian matrix: batch-based integration.
  Time summed over all CPUs for integration: real work        0.167 s, elapsed        0.169 s

  Updating Kohn-Sham eigenvalues, eigenvectors, occupation numbers, and Fermi level.
  Solving generalized eigenproblem
  Updating Kohn-Sham eigenvalues and eigenfunctions.
  Solving real generalised eigenvalue problem by standard LAPACK (fast)
  Determining occupation numbers for Kohn-Sham eigenstates.
  | Chemical potential (Fermi level) in eV                 : -.17452838E+02
  | Error in electron count due to remaining E_F inaccuracy: -.21298696E-09
  | Maximum occupation number of highest empty state:  0.00E+00

  Highest occupied state (VBM) at    -25.61436608 eV
  | Occupation number:      2.00000000

  Lowest unoccupied state (CBM) at   -17.45280140 eV
  | Occupation number:      0.99581695

  Overall HOMO-LUMO gap:      8.16156468 eV.

  Total energy components:
  | Sum of eigenvalues            :         -89.80128235 Ha       -2443.61722252 eV
  | XC energy correction          :         -16.45278061 Ha        -447.70293934 eV
  | XC potential correction       :          21.14442191 Ha         575.36899454 eV
  | Free-atom electrostatic energy:         -71.50995472 Ha       -1945.88487358 eV
  | Hartree energy correction     :           6.82613809 Ha         185.74866818 eV
  | Entropy correction            :          -0.00010538 Ha          -0.00286760 eV
  | ---------------------------
  | Total energy                  :        -149.79345769 Ha       -4076.08737271 eV
  | Total energy, T -> 0          :        -149.79356307 Ha       -4076.09024031 eV  <-- do not rely on this value for anything but (periodic) metals
  | Electronic free energy        :        -149.79366845 Ha       -4076.09310791 eV

  Derived energy quantities:
  | Kinetic energy                :         149.45345563 Ha        4066.83544607 eV
  | Electrostatic energy          :        -282.79413271 Ha       -7695.21987944 eV
  | Energy correction for multipole
  | error in Hartree potential    :          -0.00054542 Ha          -0.01484177 eV
  | Sum of eigenvalues per atom                           :       -1221.80861126 eV
  | Total energy (T->0) per atom                          :       -2038.04512016 eV  <-- do not rely on this value for anything but (periodic) metals
  | Electronic free energy per atom                       :       -2038.04655396 eV

  Self-consistency convergence accuracy:
  | Change of charge density      :  0.2625E-01
  | Change of sum of eigenvalues  :  0.5803E+00 eV
  | Change of total energy        : -0.9536E-02 eV

  End self-consistency iteration #     6       :  max(cpu_time)    wall_clock(cpu1)
  | Time for this iteration                    :        0.106 s           0.106 s
  | Charge density update                      :        0.030 s           0.030 s
  | Density mixing                             :        0.002 s           0.002 s
  | Hartree multipole update                   :        0.004 s           0.004 s
  | Hartree multipole summation                :        0.025 s           0.025 s
  | Integration                                :        0.043 s           0.042 s
  | Solution of K.-S. eqns.                    :        0.001 s           0.002 s
  | Total energy evaluation                    :        0.001 s           0.001 s
------------------------------------------------------------

------------------------------------------------------------
          Begin self-consistency iteration #    7

  Date     :  20190722, Time     :  144515.102
------------------------------------------------------------
  Evaluating new KS density.
  Integration grid: deviation in total charge (<rho> - N_e) =  -2.130598E-10
  Pulay mixing of updated and previous charge densities.

  Evaluating partitioned Hartree potential by multipole expansion.
  | Analytical far-field extrapolation by fixed multipoles:
  | Hartree multipole sum: apparent total charge =   0.999449E+00
  Summing up the Hartree potential.
  Time summed over all CPUs for potential: real work        0.096 s, elapsed        0.098 s
  | RMS charge density error from multipole expansion :   0.493970E-03

  Integrating Hamiltonian matrix: batch-based integration.
  Time summed over all CPUs for integration: real work        0.169 s, elapsed        0.174 s

  Updating Kohn-Sham eigenvalues, eigenvectors, occupation numbers, and Fermi level.
  Solving generalized eigenproblem
  Updating Kohn-Sham eigenvalues and eigenfunctions.
  Solving real generalised eigenvalue problem by standard LAPACK (fast)
  Determining occupation numbers for Kohn-Sham eigenstates.
  | Chemical potential (Fermi level) in eV                 : -.17448195E+02
  | Error in electron count due to remaining E_F inaccuracy: -.29522020E-08
  | Maximum occupation number of highest empty state:  0.00E+00

  Highest occupied state (VBM) at    -25.61550879 eV
  | Occupation number:      2.00000000

  Lowest unoccupied state (CBM) at   -17.44421804 eV
  | Occupation number:      0.57381663

  Overall HOMO-LUMO gap:      8.17129076 eV.

  Total energy components:
  | Sum of eigenvalues            :         -89.80076651 Ha       -2443.60318586 eV
  | XC energy correction          :         -16.45306250 Ha        -447.71060978 eV
  | XC potential correction       :          21.14479905 Ha         575.37925703 eV
  | Free-atom electrostatic energy:         -71.50995472 Ha       -1945.88487358 eV
  | Hartree energy correction     :           6.82589885 Ha         185.74215805 eV
  | Entropy correction            :          -0.00016404 Ha          -0.00446366 eV
  | ---------------------------
  | Total energy                  :        -149.79308584 Ha       -4076.07725414 eV
  | Total energy, T -> 0          :        -149.79324987 Ha       -4076.08171780 eV  <-- do not rely on this value for anything but (periodic) metals
  | Electronic free energy        :        -149.79341391 Ha       -4076.08618147 eV

  Derived energy quantities:
  | Kinetic energy                :         149.45554147 Ha        4066.89220466 eV
  | Electrostatic energy          :        -282.79556481 Ha       -7695.25884902 eV
  | Energy correction for multipole
  | error in Hartree potential    :          -0.00054508 Ha          -0.01483250 eV
  | Sum of eigenvalues per atom                           :       -1221.80159293 eV
  | Total energy (T->0) per atom                          :       -2038.04085890 eV  <-- do not rely on this value for anything but (periodic) metals
  | Electronic free energy per atom                       :       -2038.04309073 eV

  Self-consistency convergence accuracy:
  | Change of charge density      :  0.1739E+00
  | Change of sum of eigenvalues  :  0.1404E-01 eV
  | Change of total energy        :  0.1012E-01 eV

  End self-consistency iteration #     7       :  max(cpu_time)    wall_clock(cpu1)
  | Time for this iteration                    :        0.108 s           0.107 s
  | Charge density update                      :        0.031 s           0.030 s
  | Density mixing                             :        0.002 s           0.002 s
  | Hartree multipole update                   :        0.004 s           0.004 s
  | Hartree multipole summation                :        0.025 s           0.025 s
  | Integration                                :        0.044 s           0.044 s
  | Solution of K.-S. eqns.                    :        0.001 s           0.001 s
  | Total energy evaluation                    :        0.001 s           0.001 s
------------------------------------------------------------

------------------------------------------------------------
          Begin self-consistency iteration #    8

  Date     :  20190722, Time     :  144515.211
------------------------------------------------------------
  Evaluating new KS density.
  Integration grid: deviation in total charge (<rho> - N_e) =  -2.952138E-09
  Pulay mixing of updated and previous charge densities.

  Evaluating partitioned Hartree potential by multipole expansion.
  | Analytical far-field extrapolation by fixed multipoles:
  | Hartree multipole sum: apparent total charge =   0.999693E+00
  Summing up the Hartree potential.
  Time summed over all CPUs for potential: real work        0.100 s, elapsed        0.104 s
  | RMS charge density error from multipole expansion :   0.494679E-03

  Integrating Hamiltonian matrix: batch-based integration.
  Time summed over all CPUs for integration: real work        0.170 s, elapsed        0.173 s

  Updating Kohn-Sham eigenvalues, eigenvectors, occupation numbers, and Fermi level.
  Solving generalized eigenproblem
  Updating Kohn-Sham eigenvalues and eigenfunctions.
  Solving real generalised eigenvalue problem by standard LAPACK (fast)
  Determining occupation numbers for Kohn-Sham eigenstates.
  | Chemical potential (Fermi level) in eV                 : -.17445967E+02
  | Error in electron count due to remaining E_F inaccuracy: 0.24158453E-12
  | Maximum occupation number of highest empty state:  0.00E+00

  Highest occupied state (VBM) at    -25.61404018 eV
  | Occupation number:      2.00000000

  Lowest unoccupied state (CBM) at   -17.44259902 eV
  | Occupation number:      0.63386146

  Overall HOMO-LUMO gap:      8.17144116 eV.

  Total energy components:
  | Sum of eigenvalues            :         -89.79942414 Ha       -2443.56665829 eV
  | XC energy correction          :         -16.45325362 Ha        -447.71581048 eV
  | XC potential correction       :          21.14505867 Ha         575.38632165 eV
  | Free-atom electrostatic energy:         -71.50995472 Ha       -1945.88487358 eV
  | Hartree energy correction     :           6.82447765 Ha         185.70348548 eV
  | Entropy correction            :          -0.00016146 Ha          -0.00439364 eV
  | ---------------------------
  | Total energy                  :        -149.79309617 Ha       -4076.07753521 eV
  | Total energy, T -> 0          :        -149.79325763 Ha       -4076.08192885 eV  <-- do not rely on this value for anything but (periodic) metals
  | Electronic free energy        :        -149.79341909 Ha       -4076.08632248 eV

  Derived energy quantities:
  | Kinetic energy                :         149.45503484 Ha        4066.87841849 eV
  | Electrostatic energy          :        -282.79487739 Ha       -7695.24014323 eV
  | Energy correction for multipole
  | error in Hartree potential    :          -0.00054403 Ha          -0.01480383 eV
  | Sum of eigenvalues per atom                           :       -1221.78332914 eV
  | Total energy (T->0) per atom                          :       -2038.04096442 eV  <-- do not rely on this value for anything but (periodic) metals
  | Electronic free energy per atom                       :       -2038.04316124 eV

  Self-consistency convergence accuracy:
  | Change of charge density      :  0.2549E-01
  | Change of sum of eigenvalues  :  0.3653E-01 eV
  | Change of total energy        : -0.2811E-03 eV

  End self-consistency iteration #     8       :  max(cpu_time)    wall_clock(cpu1)
  | Time for this iteration                    :        0.108 s           0.112 s
  | Charge density update                      :        0.031 s           0.032 s
  | Density mixing                             :        0.003 s           0.004 s
  | Hartree multipole update                   :        0.004 s           0.004 s
  | Hartree multipole summation                :        0.027 s           0.026 s
  | Integration                                :        0.043 s           0.044 s
  | Solution of K.-S. eqns.                    :        0.001 s           0.001 s
  | Total energy evaluation                    :        0.000 s           0.001 s
------------------------------------------------------------

------------------------------------------------------------
          Begin self-consistency iteration #    9

  Date     :  20190722, Time     :  144515.324
------------------------------------------------------------
  Evaluating new KS density.
  Integration grid: deviation in total charge (<rho> - N_e) =   7.815970E-14
  Pulay mixing of updated and previous charge densities.

  Evaluating partitioned Hartree potential by multipole expansion.
  | Analytical far-field extrapolation by fixed multipoles:
  | Hartree multipole sum: apparent total charge =   0.999736E+00
  Summing up the Hartree potential.
  Time summed over all CPUs for potential: real work        0.101 s, elapsed        0.117 s
  | RMS charge density error from multipole expansion :   0.494765E-03

  Integrating Hamiltonian matrix: batch-based integration.
  Time summed over all CPUs for integration: real work        0.174 s, elapsed        0.195 s

  Updating Kohn-Sham eigenvalues, eigenvectors, occupation numbers, and Fermi level.
  Solving generalized eigenproblem
  Updating Kohn-Sham eigenvalues and eigenfunctions.
  Solving real generalised eigenvalue problem by standard LAPACK (fast)
  Determining occupation numbers for Kohn-Sham eigenstates.
  | Chemical potential (Fermi level) in eV                 : -.17445401E+02
  | Error in electron count due to remaining E_F inaccuracy: -.51514348E-13
  | Maximum occupation number of highest empty state:  0.00E+00

  Highest occupied state (VBM) at    -25.61365021 eV
  | Occupation number:      2.00000000

  Lowest unoccupied state (CBM) at   -17.44164924 eV
  | Occupation number:      0.59574712

  Overall HOMO-LUMO gap:      8.17200097 eV.

  Total energy components:
  | Sum of eigenvalues            :         -89.79907988 Ha       -2443.55729036 eV
  | XC energy correction          :         -16.45330300 Ha        -447.71715414 eV
  | XC potential correction       :          21.14512469 Ha         575.38811829 eV
  | Free-atom electrostatic energy:         -71.50995472 Ha       -1945.88487358 eV
  | Hartree energy correction     :           6.82412417 Ha         185.69386671 eV
  | Entropy correction            :          -0.00016327 Ha          -0.00444285 eV
  | ---------------------------
  | Total energy                  :        -149.79308874 Ha       -4076.07733308 eV
  | Total energy, T -> 0          :        -149.79325201 Ha       -4076.08177593 eV  <-- do not rely on this value for anything but (periodic) metals
  | Electronic free energy        :        -149.79341528 Ha       -4076.08621879 eV

  Derived energy quantities:
  | Kinetic energy                :         149.45516730 Ha        4066.88202301 eV
  | Electrostatic energy          :        -282.79495304 Ha       -7695.24220195 eV
  | Energy correction for multipole
  | error in Hartree potential    :          -0.00054394 Ha          -0.01480123 eV
  | Sum of eigenvalues per atom                           :       -1221.77864518 eV
  | Total energy (T->0) per atom                          :       -2038.04088797 eV  <-- do not rely on this value for anything but (periodic) metals
  | Electronic free energy per atom                       :       -2038.04310939 eV

  Self-consistency convergence accuracy:
  | Change of charge density      :  0.4608E-01
  | Change of sum of eigenvalues  :  0.9368E-02 eV
  | Change of total energy        :  0.2021E-03 eV

  End self-consistency iteration #     9       :  max(cpu_time)    wall_clock(cpu1)
  | Time for this iteration                    :        0.120 s           0.121 s
  | Charge density update                      :        0.032 s           0.032 s
  | Density mixing                             :        0.003 s           0.004 s
  | Hartree multipole update                   :        0.004 s           0.004 s
  | Hartree multipole summation                :        0.030 s           0.030 s
  | Integration                                :        0.049 s           0.049 s
  | Solution of K.-S. eqns.                    :        0.001 s           0.001 s
  | Total energy evaluation                    :        0.001 s           0.001 s
------------------------------------------------------------

------------------------------------------------------------
          Begin self-consistency iteration #   10

  Date     :  20190722, Time     :  144515.446
------------------------------------------------------------
  Evaluating new KS density.
  Integration grid: deviation in total charge (<rho> - N_e) =  -6.750156E-14
  Pulay mixing of updated and previous charge densities.

  Evaluating partitioned Hartree potential by multipole expansion.
  | Analytical far-field extrapolation by fixed multipoles:
  | Hartree multipole sum: apparent total charge =   0.100002E+01
  Summing up the Hartree potential.
  Time summed over all CPUs for potential: real work        0.096 s, elapsed        0.098 s
  | RMS charge density error from multipole expansion :   0.495260E-03

  Integrating Hamiltonian matrix: batch-based integration.
  Time summed over all CPUs for integration: real work        0.165 s, elapsed        0.167 s

  Updating Kohn-Sham eigenvalues, eigenvectors, occupation numbers, and Fermi level.
  Solving generalized eigenproblem
  Updating Kohn-Sham eigenvalues and eigenfunctions.
  Solving real generalised eigenvalue problem by standard LAPACK (fast)
  Determining occupation numbers for Kohn-Sham eigenstates.
  | Chemical potential (Fermi level) in eV                 : -.17443481E+02
  | Error in electron count due to remaining E_F inaccuracy: -.19717561E-12
  | Maximum occupation number of highest empty state:  0.00E+00

  Highest occupied state (VBM) at    -25.61210523 eV
  | Occupation number:      2.00000000

  Lowest unoccupied state (CBM) at   -17.44085959 eV
  | Occupation number:      0.71084212

  Overall HOMO-LUMO gap:      8.17124564 eV.

  Total energy components:
  | Sum of eigenvalues            :         -89.79759462 Ha       -2443.51687446 eV
  | XC energy correction          :         -16.45356229 Ha        -447.72420996 eV
  | XC potential correction       :          21.14547118 Ha         575.39754666 eV
  | Free-atom electrostatic energy:         -71.50995472 Ha       -1945.88487358 eV
  | Hartree energy correction     :           6.82252124 Ha         185.65024865 eV
  | Entropy correction            :          -0.00015589 Ha          -0.00424211 eV
  | ---------------------------
  | Total energy                  :        -149.79311922 Ha       -4076.07816268 eV
  | Total energy, T -> 0          :        -149.79327512 Ha       -4076.08240479 eV  <-- do not rely on this value for anything but (periodic) metals
  | Electronic free energy        :        -149.79343101 Ha       -4076.08664690 eV

  Derived energy quantities:
  | Kinetic energy                :         149.45599108 Ha        4066.90443919 eV
  | Electrostatic energy          :        -282.79554801 Ha       -7695.25839192 eV
  | Energy correction for multipole
  | error in Hartree potential    :          -0.00054353 Ha          -0.01479025 eV
  | Sum of eigenvalues per atom                           :       -1221.75843723 eV
  | Total energy (T->0) per atom                          :       -2038.04120239 eV  <-- do not rely on this value for anything but (periodic) metals
  | Electronic free energy per atom                       :       -2038.04332345 eV

  Self-consistency convergence accuracy:
  | Change of charge density      :  0.3295E-01
  | Change of sum of eigenvalues  :  0.4042E-01 eV
  | Change of total energy        : -0.8296E-03 eV

  End self-consistency iteration #    10       :  max(cpu_time)    wall_clock(cpu1)
  | Time for this iteration                    :        0.111 s           0.111 s
  | Charge density update                      :        0.035 s           0.034 s
  | Density mixing                             :        0.003 s           0.004 s
  | Hartree multipole update                   :        0.004 s           0.004 s
  | Hartree multipole summation                :        0.025 s           0.025 s
  | Integration                                :        0.042 s           0.042 s
  | Solution of K.-S. eqns.                    :        0.001 s           0.001 s
  | Total energy evaluation                    :        0.000 s           0.001 s
------------------------------------------------------------

------------------------------------------------------------
          Begin self-consistency iteration #   11

  Date     :  20190722, Time     :  144515.558
------------------------------------------------------------
  Evaluating new KS density.
  Integration grid: deviation in total charge (<rho> - N_e) =  -4.973799E-14
  Pulay mixing of updated and previous charge densities.

  Evaluating partitioned Hartree potential by multipole expansion.
  | Analytical far-field extrapolation by fixed multipoles:
  | Hartree multipole sum: apparent total charge =   0.999995E+00
  Summing up the Hartree potential.
  Time summed over all CPUs for potential: real work        0.096 s, elapsed        0.098 s
  | RMS charge density error from multipole expansion :   0.495307E-03

  Integrating Hamiltonian matrix: batch-based integration.
  Time summed over all CPUs for integration: real work        0.165 s, elapsed        0.167 s

  Updating Kohn-Sham eigenvalues, eigenvectors, occupation numbers, and Fermi level.
  Solving generalized eigenproblem
  Updating Kohn-Sham eigenvalues and eigenfunctions.
  Solving real generalised eigenvalue problem by standard LAPACK (fast)
  Determining occupation numbers for Kohn-Sham eigenstates.
  | Chemical potential (Fermi level) in eV                 : -.17441526E+02
  | Error in electron count due to remaining E_F inaccuracy: 0.18829382E-12
  | Maximum occupation number of highest empty state:  0.00E+00

  Highest occupied state (VBM) at    -25.61055803 eV
  | Occupation number:      2.00000000

  Lowest unoccupied state (CBM) at   -17.43706975 eV
  | Occupation number:      0.52853509

  Overall HOMO-LUMO gap:      8.17348828 eV.

  Total energy components:
  | Sum of eigenvalues            :         -89.79649937 Ha       -2443.48707099 eV
  | XC energy correction          :         -16.45367370 Ha        -447.72724136 eV
  | XC potential correction       :          21.14561809 Ha         575.40154433 eV
  | Free-atom electrostatic energy:         -71.50995472 Ha       -1945.88487358 eV
  | Hartree energy correction     :           6.82142801 Ha         185.62050043 eV
  | Entropy correction            :          -0.00016499 Ha          -0.00448951 eV
  | ---------------------------
  | Total energy                  :        -149.79308169 Ha       -4076.07714118 eV
  | Total energy, T -> 0          :        -149.79324667 Ha       -4076.08163068 eV  <-- do not rely on this value for anything but (periodic) metals
  | Electronic free energy        :        -149.79341166 Ha       -4076.08612019 eV

  Derived energy quantities:
  | Kinetic energy                :         149.45655118 Ha        4066.91968018 eV
  | Electrostatic energy          :        -282.79595917 Ha       -7695.26958000 eV
  | Energy correction for multipole
  | error in Hartree potential    :          -0.00054351 Ha          -0.01478959 eV
  | Sum of eigenvalues per atom                           :       -1221.74353550 eV
  | Total energy (T->0) per atom                          :       -2038.04081534 eV  <-- do not rely on this value for anything but (periodic) metals
  | Electronic free energy per atom                       :       -2038.04306010 eV

  Self-consistency convergence accuracy:
  | Change of charge density      :  0.7269E-01
  | Change of sum of eigenvalues  :  0.2980E-01 eV
  | Change of total energy        :  0.1022E-02 eV

  End self-consistency iteration #    11       :  max(cpu_time)    wall_clock(cpu1)
  | Time for this iteration                    :        0.106 s           0.106 s
  | Charge density update                      :        0.030 s           0.030 s
  | Density mixing                             :        0.003 s           0.003 s
  | Hartree multipole update                   :        0.004 s           0.004 s
  | Hartree multipole summation                :        0.025 s           0.025 s
  | Integration                                :        0.042 s           0.042 s
  | Solution of K.-S. eqns.                    :        0.001 s           0.001 s
  | Total energy evaluation                    :        0.000 s           0.001 s
------------------------------------------------------------

------------------------------------------------------------
          Begin self-consistency iteration #   12

  Date     :  20190722, Time     :  144515.665
------------------------------------------------------------
  Evaluating new KS density.
  Integration grid: deviation in total charge (<rho> - N_e) =   1.243450E-13
  Pulay mixing of updated and previous charge densities.

  Evaluating partitioned Hartree potential by multipole expansion.
  | Analytical far-field extrapolation by fixed multipoles:
  | Hartree multipole sum: apparent total charge =   0.100000E+01
  Summing up the Hartree potential.
  Time summed over all CPUs for potential: real work        0.098 s, elapsed        0.102 s
  | RMS charge density error from multipole expansion :   0.495326E-03

  Integrating Hamiltonian matrix: batch-based integration.
  Time summed over all CPUs for integration: real work        0.166 s, elapsed        0.168 s

  Updating Kohn-Sham eigenvalues, eigenvectors, occupation numbers, and Fermi level.
  Solving generalized eigenproblem
  Updating Kohn-Sham eigenvalues and eigenfunctions.
  Solving real generalised eigenvalue problem by standard LAPACK (fast)
  Determining occupation numbers for Kohn-Sham eigenstates.
  | Chemical potential (Fermi level) in eV                 : -.17441427E+02
  | Error in electron count due to remaining E_F inaccuracy: 0.19539925E-13
  | Maximum occupation number of highest empty state:  0.00E+00

  Highest occupied state (VBM) at    -25.61041675 eV
  | Occupation number:      2.00000000

  Lowest unoccupied state (CBM) at   -17.43698426 eV
  | Occupation number:      0.52982236

  Overall HOMO-LUMO gap:      8.17343250 eV.

  Total energy components:
  | Sum of eigenvalues            :         -89.79644807 Ha       -2443.48567516 eV
  | XC energy correction          :         -16.45368341 Ha        -447.72750570 eV
  | XC potential correction       :          21.14563122 Ha         575.40190175 eV
  | Free-atom electrostatic energy:         -71.50995472 Ha       -1945.88487358 eV
  | Hartree energy correction     :           6.82137323 Ha         185.61900982 eV
  | Entropy correction            :          -0.00016497 Ha          -0.00448909 eV
  | ---------------------------
  | Total energy                  :        -149.79308175 Ha       -4076.07714287 eV
  | Total energy, T -> 0          :        -149.79324672 Ha       -4076.08163196 eV  <-- do not rely on this value for anything but (periodic) metals
[...]
  | Total energy (T->0) per atom                          :       -2038.04080844 eV  <-- do not rely on this value for anything but (periodic) metals
  | Electronic free energy per atom                       :       -2038.04305546 eV

  Self-consistency convergence accuracy:
  | Change of charge density      :  0.7326E-04
  | Change of sum of eigenvalues  : -0.3794E-03 eV
  | Change of total energy        : -0.2386E-08 eV

  Electronic self-consistency reached - switching on the force computation.

  End self-consistency iteration #    15       :  max(cpu_time)    wall_clock(cpu1)
  | Time for this iteration                    :        0.110 s           0.110 s
  | Charge density & force component update    :        0.030 s           0.031 s
  | Density mixing                             :        0.003 s           0.003 s
  | Hartree multipole update                   :        0.005 s           0.004 s
  | Hartree multipole summation                :        0.025 s           0.026 s
  | Integration                                :        0.043 s           0.043 s
  | Solution of K.-S. eqns.                    :        0.002 s           0.002 s
  | Total energy evaluation                    :        0.000 s           0.001 s
------------------------------------------------------------

------------------------------------------------------------
          Begin self-consistency iteration #   16

  Date     :  20190722, Time     :  144516.119
------------------------------------------------------------
  Evaluating new KS density.
  Integration grid: deviation in total charge (<rho> - N_e) =   6.217249E-14
  Pulay mixing of updated and previous charge densities.

  Evaluating partitioned Hartree potential by multipole expansion.
  | Analytical far-field extrapolation by fixed multipoles:
  | Hartree multipole sum: apparent total charge =   0.999999E+00
  Summing up the Hartree potential.
  Time summed over all CPUs for potential: real work        0.258 s, elapsed        0.267 s
  | RMS charge density error from multipole expansion :   0.495332E-03

  Integrating Hamiltonian matrix: batch-based integration.
  Time summed over all CPUs for integration: real work        0.168 s, elapsed        0.170 s

  Updating Kohn-Sham eigenvalues, eigenvectors, occupation numbers, and Fermi level.
  Solving generalized eigenproblem
  Updating Kohn-Sham eigenvalues and eigenfunctions.
  Solving real generalised eigenvalue problem by standard LAPACK (fast)
  Determining occupation numbers for Kohn-Sham eigenstates.
  | Chemical potential (Fermi level) in eV                 : -.17441308E+02
  | Error in electron count due to remaining E_F inaccuracy: -.28421709E-13
  | Maximum occupation number of highest empty state:  0.00E+00

  Highest occupied state (VBM) at    -25.61029617 eV
  | Occupation number:      2.00000000

  Lowest unoccupied state (CBM) at   -17.43653916 eV
  | Occupation number:      0.50007069

  Overall HOMO-LUMO gap:      8.17375702 eV.

  Total energy components:
  | Sum of eigenvalues            :         -89.79637991 Ha       -2443.48382032 eV
  | XC energy correction          :         -16.45369163 Ha        -447.72772937 eV
  | XC potential correction       :          21.14564215 Ha         575.40219897 eV
  | Free-atom electrostatic energy:         -71.50995472 Ha       -1945.88487358 eV
  | Hartree energy correction     :           6.82130310 Ha         185.61710146 eV
  | Entropy correction            :          -0.00016515 Ha          -0.00449404 eV
  | ---------------------------
  | Total energy                  :        -149.79308101 Ha       -4076.07712284 eV
  | Total energy, T -> 0          :        -149.79324616 Ha       -4076.08161688 eV  <-- do not rely on this value for anything but (periodic) metals
  | Electronic free energy        :        -149.79341132 Ha       -4076.08611092 eV

  Derived energy quantities:
  | Kinetic energy                :         149.45658029 Ha        4066.92047219 eV
  | Electrostatic energy          :        -282.79596967 Ha       -7695.26986566 eV
  | Energy correction for multipole
  | error in Hartree potential    :          -0.00054343 Ha          -0.01478739 eV
  | Sum of eigenvalues per atom                           :       -1221.74191016 eV
  | Total energy (T->0) per atom                          :       -2038.04080844 eV  <-- do not rely on this value for anything but (periodic) metals
  | Electronic free energy per atom                       :       -2038.04305546 eV

  atomic forces [eV/Ang]:
  -----------------------
  atom #    1
   Hellmann-Feynman              :  0.346138E-09  0.347305E-01 -0.155921E+02
   Ionic forces                  :  0.000000E+00  0.000000E+00  0.000000E+00
   Multipole                     :  0.349698E-11  0.133110E-03 -0.593845E-01
   Pulay + GGA                   :  0.000000E+00  0.000000E+00  0.000000E+00
   ----------------------------------------------------------------
   Total forces(   1)            :  0.349635E-09  0.348637E-01 -0.156515E+02
  atom #    2
   Hellmann-Feynman              : -0.341707E-09 -0.347305E-01  0.155921E+02
   Ionic forces                  :  0.000000E+00  0.000000E+00  0.000000E+00
   Multipole                     : -0.364879E-11 -0.133110E-03  0.593845E-01
   Pulay + GGA                   :  0.000000E+00  0.000000E+00  0.000000E+00
   ----------------------------------------------------------------
   Total forces(   2)            : -0.345356E-09 -0.348637E-01  0.156515E+02


  Self-consistency convergence accuracy:
  | Change of charge density      :  0.1392E-03
  | Change of sum of eigenvalues  :  0.1041E-03 eV
  | Change of total energy        :  0.3418E-08 eV
  | Change of forces              :  0.1565E+02 eV/A

  End self-consistency iteration #    16       :  max(cpu_time)    wall_clock(cpu1)
  | Time for this iteration                    :        0.150 s           0.150 s
  | Charge density & force component update    :        0.030 s           0.030 s
  | Density mixing                             :        0.003 s           0.004 s
  | Hartree multipole update                   :        0.004 s           0.003 s
  | Hartree multipole summation                :        0.068 s           0.068 s
  | Integration                                :        0.043 s           0.043 s
  | Solution of K.-S. eqns.                    :        0.001 s           0.001 s
  | Total energy evaluation                    :        0.001 s           0.001 s
------------------------------------------------------------

------------------------------------------------------------
          Begin self-consistency iteration #   17

  Date     :  20190722, Time     :  144516.271
------------------------------------------------------------
  Evaluating new KS density and force components.
  Integration grid: deviation in total charge (<rho> - N_e) =   9.237056E-14
  Pulay mixing of updated and previous charge densities.

  Evaluating partitioned Hartree potential by multipole expansion.
  | Analytical far-field extrapolation by fixed multipoles:
  | Hartree multipole sum: apparent total charge =   0.999999E+00
  Summing up the Hartree potential.
  Time summed over all CPUs for potential: real work        0.256 s, elapsed        0.263 s
  | RMS charge density error from multipole expansion :   0.495332E-03

  Integrating Hamiltonian matrix: batch-based integration.
  Time summed over all CPUs for integration: real work        0.167 s, elapsed        0.169 s

  Updating Kohn-Sham eigenvalues, eigenvectors, occupation numbers, and Fermi level.
  Solving generalized eigenproblem
  Updating Kohn-Sham eigenvalues and eigenfunctions.
  Solving real generalised eigenvalue problem by standard LAPACK (fast)
  Determining occupation numbers for Kohn-Sham eigenstates.
  | Chemical potential (Fermi level) in eV                 : -.17441307E+02
  | Error in electron count due to remaining E_F inaccuracy: 0.14210855E-13
  | Maximum occupation number of highest empty state:  0.00E+00

  Highest occupied state (VBM) at    -25.61029545 eV
  | Occupation number:      2.00000000

  Lowest unoccupied state (CBM) at   -17.43653769 eV
  | Occupation number:      0.50000264

  Overall HOMO-LUMO gap:      8.17375776 eV.

  Total energy components:
  | Sum of eigenvalues            :         -89.79637952 Ha       -2443.48380978 eV
  | XC energy correction          :         -16.45369163 Ha        -447.72772949 eV
  | XC potential correction       :          21.14564215 Ha         575.40219911 eV
  | Free-atom electrostatic energy:         -71.50995472 Ha       -1945.88487358 eV
  | Hartree energy correction     :           6.82130271 Ha         185.61709090 eV
  | Entropy correction            :          -0.00016515 Ha          -0.00449404 eV
  | ---------------------------
  | Total energy                  :        -149.79308101 Ha       -4076.07712284 eV
  | Total energy, T -> 0          :        -149.79324616 Ha       -4076.08161688 eV  <-- do not rely on this value for anything but (periodic) metals
  | Electronic free energy        :        -149.79341132 Ha       -4076.08611092 eV

  Derived energy quantities:
  | Kinetic energy                :         149.45658023 Ha        4066.92047059 eV
  | Electrostatic energy          :        -282.79596960 Ha       -7695.26986394 eV
  | Energy correction for multipole
  | error in Hartree potential    :          -0.00054343 Ha          -0.01478739 eV
  | Sum of eigenvalues per atom                           :       -1221.74190489 eV
  | Total energy (T->0) per atom                          :       -2038.04080844 eV  <-- do not rely on this value for anything but (periodic) metals
  | Electronic free energy per atom                       :       -2038.04305546 eV

  atomic forces [eV/Ang]:
  -----------------------
  atom #    1
   Hellmann-Feynman              :  0.234162E-09  0.347306E-01 -0.155921E+02
   Ionic forces                  :  0.000000E+00  0.000000E+00  0.000000E+00
   Multipole                     :  0.162099E-11  0.133110E-03 -0.593844E-01
   Pulay + GGA                   :  0.246001E-10 -0.348634E-01  0.156517E+02
   ----------------------------------------------------------------
   Total forces(   1)            :  0.260383E-09  0.253859E-06  0.249190E-03
  atom #    2
   Hellmann-Feynman              : -0.223200E-09 -0.347306E-01  0.155921E+02
   Ionic forces                  :  0.000000E+00  0.000000E+00  0.000000E+00
   Multipole                     : -0.154010E-11 -0.133110E-03  0.593844E-01
   Pulay + GGA                   : -0.257747E-10  0.348634E-01 -0.156517E+02
   ----------------------------------------------------------------
   Total forces(   2)            : -0.250515E-09 -0.253862E-06 -0.249190E-03


  Self-consistency convergence accuracy:
  | Change of charge density      :  0.2434E-04
  | Change of sum of eigenvalues  :  0.1054E-04 eV
  | Change of total energy        :  0.1060E-09 eV
  | Change of forces              :  0.1759E-05 eV/A

  Writing Kohn-Sham eigenvalues.

  State    Occupation    Eigenvalue [Ha]    Eigenvalue [eV]
      1       2.00000         -19.412611         -528.24402
      2       2.00000         -19.412392         -528.23807
      3       2.00000          -1.743891          -47.45369
      4       2.00000          -1.151970          -31.34670
      5       2.00000          -0.957887          -26.06543
      6       2.00000          -0.957887          -26.06543
      7       2.00000          -0.941161          -25.61030
      8       0.50000          -0.640781          -17.43654
      9       0.50000          -0.640781          -17.43654
     10       0.00000          -0.181164           -4.92973
     11       0.00000          -0.160859           -4.37719
     12       0.00000          -0.115282           -3.13697
     13       0.00000          -0.115282           -3.13697
     14       0.00000          -0.061531           -1.67435

  Highest occupied state (VBM) at    -25.61029545 eV
  | Occupation number:      2.00000000

  Lowest unoccupied state (CBM) at   -17.43653769 eV
  | Occupation number:      0.50000264

  Overall HOMO-LUMO gap:      8.17375776 eV.

  Self-consistency cycle converged.

  End self-consistency iteration #    17       :  max(cpu_time)    wall_clock(cpu1)
  | Time for this iteration                    :        0.219 s           0.219 s
  | Charge density & force component update    :        0.100 s           0.100 s
  | Density mixing                             :        0.003 s           0.003 s
  | Hartree multipole update                   :        0.004 s           0.004 s
  | Hartree multipole summation                :        0.066 s           0.066 s
  | Integration                                :        0.043 s           0.043 s
  | Solution of K.-S. eqns.                    :        0.001 s           0.001 s
  | Total energy evaluation                    :        0.001 s           0.001 s
------------------------------------------------------------
  Writing cluster restart information to file restart
  ------------------------------------------------------------
   Computing monopole / dipole moments for complete molecule:
  | Total electronic charge [e]         :          0.150000000502659E+02
  | Total ionic charge [e]              :          0.160000000000000E+02
  | Total charge [e]                    :          0.999999949734118E+00
 * Warning: The system has a total charge of      0.99999995 .
 * The dipole moment depends on the choice of the origin.
  | Total dipole moment [eAng]          :         -0.471472539925744E-14         0.124999993717472E-02         0.603749969651957E+00
  | Absolute dipole moment              :          0.603751263646365E+00 eAng              /                   0.289948895605117E+01 Debye  .
  Removing unitary transformations (pure translations, rotations) from forces on atoms.
  Atomic forces before filtering:
  | Net force on center of mass :   0.986884E-11 -0.345163E-11  0.841684E-11 eV/A
  | Net torque on center of mass:   0.908006E-06 -0.286813E-09 -0.638622E-12 eV
  Atomic forces after filtering:
  | Net force on center of mass :   0.259615E-26  0.000000E+00  0.000000E+00 eV/A
  | Net torque on center of mass:  -0.180070E-21  0.000000E+00  0.000000E+00 eV

  Energy and forces in a compact form:
  | Total energy uncorrected      :         -0.407607712284123E+04 eV
  | Total energy corrected        :         -0.407608161688052E+04 eV  <-- do not rely on this value for anything but (periodic) metals
  | Electronic free energy        :         -0.407608611091980E+04 eV
  Total atomic forces (unitary forces cleaned) [eV/Ang]:
  |   1          0.129807539725224E-26         -0.554846287064844E-06          0.249188476339120E-03
  |   2          0.129807539725224E-26          0.554846287064844E-06         -0.249188476339120E-03

  ------------------------------------ 
  Start decomposition of the XC Energy 
  ------------------------------------ 
  Hartree-Fock part   :          0.000000000 Ha              0.000000000 eV
  ------------------------------------ 
  X Energy            :        -15.950250868 Ha           -434.028409234 eV
  C Energy GGA        :         -0.503440766 Ha            -13.699320256 eV
  Total XC Energy     :        -16.453691634 Ha           -447.727729490 eV
  LDA X and C from self-consistent density 
  X Energy LDA        :        -14.465847518 Ha           -393.635738939 eV
  C Energy LDA        :         -1.061660392 Ha            -28.889249137 eV
  ------------------------------------ 
  End decomposition of the XC Energy 
  ------------------------------------ 

------------------------------------------------------------------------------
  Final output of selected total energy values:

  The following output summarizes some interesting total energy values
  at the end of a run (AFTER all relaxation, molecular dynamics, etc.).

  | Total energy of the DFT / Hartree-Fock s.c.f. calculation      :          -4076.077122841 eV
  | Final zero-broadening corrected energy (caution - metals only) :          -4076.081616881 eV
  | For reference only, the value of 1 Hartree used in FHI-aims is :             27.211384500 eV

  Before relying on these values, please be sure to understand exactly which
  total energy value is referred to by a given number. Different objects may
  all carry the same name 'total energy'. Definitions:

  Total energy of the DFT / Hartree-Fock s.c.f. calculation:
  | Note that this energy does not include ANY quantities calculated after the
  | s.c.f. cycle, in particular not ANY RPA, MP2, etc. many-body perturbation terms.

  Final zero-broadening corrected energy:
  | For metallic systems only, a broadening of the occupation numbers at the Fermi
  | level can be extrapolated back to zero broadening by an electron-gas inspired
  | formula. For all systems that are not real metals, this value can be
  | meaningless and should be avoided.

------------------------------------------------------------------------------
  Methods described in the following list of references were used in this FHI-aims run.
  If you publish the results, please make sure to cite these reference if they apply.
  FHI-aims is an academic code, and for our developers (often, Ph.D. students
  and postdocs), scientific credit in the community is essential.
  Thank you for helping us!

  For any use of FHI-aims, please cite:

    Volker Blum, Ralf Gehrke, Felix Hanke, Paula Havu, Ville Havu,
    Xinguo Ren, Karsten Reuter, and Matthias Scheffler
    'Ab initio molecular simulations with numeric atom-centered orbitals'
    Computer Physics Communications 180, 2175-2196 (2009)
    http://dx.doi.org/10.1016/j.cpc.2009.06.022


  For the real-space grid partitioning and parallelization used in this calculation, please cite:

    Ville Havu, Volker Blum, Paula Havu, and Matthias Scheffler,
    'Efficient O(N) integration for all-electron electronic structure calculation'
    'using numerically tabulated basis functions'
    Journal of Computational Physics 228, 8367-8379 (2009).
    http://dx.doi.org/10.1016/j.jcp.2009.08.008

  Of course, there are many other important community references, e.g., those cited in the
  above references. Our list is limited to references that describe implementations in the
  FHI-aims code. The reason is purely practical (length of this list) - please credit others as well.

------------------------------------------------------------
          Leaving FHI-aims.
          Date     :  20190722, Time     :  144516.530

          Computational steps:
          | Number of self-consistency cycles          :           17

          Detailed time accounting                     :  max(cpu_time)    wall_clock(cpu1)
          | Total time                                 :        2.444 s           2.486 s
          | Preparation time                           :        0.144 s           0.152 s
          | Grid partitioning                          :        0.021 s           0.022 s
          | Preloading free-atom quantities on grid    :        0.017 s           0.018 s
          | Free-atom superposition energy             :        0.009 s           0.009 s
          | Total time for integrations                :        0.840 s           0.842 s
          | Total time for solution of K.-S. equations :        0.030 s           0.034 s
          | Total time for density & force components  :        0.622 s           0.621 s
          | Total time for mixing                      :        0.042 s           0.051 s
          | Total time for Hartree multipole update    :        0.077 s           0.071 s
          | Total time for Hartree multipole sum       :        0.549 s           0.547 s
          | Total time for total energy evaluation     :        0.009 s           0.019 s

          Have a nice day.
------------------------------------------------------------
