  MPI-parallelism will be employed.
------------------------------------------------------------
          Invoking FHI-aims ...
          Version 160328_3
          Compiled on 2019/06/10 at 14:55:49 on host taito-login3.csc.fi.

          When using FHI-aims, please cite the following reference:

          Volker Blum, Ralf Gehrke, Felix Hanke, Paula Havu,
          Ville Havu, Xinguo Ren, Karsten Reuter, and Matthias Scheffler,
          'Ab Initio Molecular Simulations with Numeric Atom-Centered Orbitals',
          Computer Physics Communications 180, 2175-2196 (2009)

          For any questions about FHI-aims, please visit the aimsclub website
          with its forums and wiki. Contributions to both the forums and the
          wiki are warmly encouraged - they are for you, and everyone is welcome there.

------------------------------------------------------------

  Date     :  20190722, Time     :  144422.315
  Time zero on CPU 1             :   0.679890000000000E-01  s.
  Internal wall clock time zero  :           333038662.315  s.

  Using        4 parallel tasks.
  Task        0 on host c798 reporting.
  Task        1 on host c798 reporting.
  Task        2 on host c798 reporting.
  Task        3 on host c798 reporting.

  Performing system and environment tests:
  | Environment variable OMP_NUM_THREADS correctly set to 1.
  | Maximum stacksize for task 0: unlimited
  | Maximum stacksize for task 1: unlimited
  | Maximum stacksize for task 2: unlimited
  | Maximum stacksize for task 3: unlimited
  | Current stacksize for task 0: 1024 [Mb]
  | Current stacksize for task 1: 1024 [Mb]
  | Current stacksize for task 2: 1024 [Mb]
  | Current stacksize for task 3: 1024 [Mb]
  | Checking for scalapack...
  | No scalapack compiled in.

  Obtaining array dimensions for all initial allocations:
  
  -----------------------------------------------------------------------
  Parsing control.in (first pass over file, find array dimensions only).
  The contents of control.in will be repeated verbatim below
  unless switched off by setting 'verbatim_writeout .false.' .
  in the first line of control.in .
  -----------------------------------------------------------------------
  
    #  Physical model settings
    #
  
    xc                            pbe
    charge                        1.0
    relativistic                  none
  #  default_initial_moment        0.0
    spin                          none
  #  vdw_correction_hirshfeld
  
    #  SCF convergence settings
    #
  
    sc_accuracy_rho               1E-4
    sc_accuracy_eev               1E-2
    sc_accuracy_etot              1E-8
    sc_iter_limit                 100
  
    #  Occupation settings
    #
  
    restart                       restart
  #  force_occupation_projector      6 1 1.0 6 7 # ion 3
  
    #  Relaxation
    #
  
    ######relax_geometry                bfgs    1.e-4
  
  
  ################################################################################
  #
  #  FHI-aims code project
  #  VB, Fritz-Haber Institut, 2007
  #
  #  Suggested "safe" defaults for O atom (to be pasted into control.in file)
  #
  ################################################################################
    species        O
  #     global species definitions
      nucleus             8
      mass                15.9994
  #
      l_hartree           8
  #
      cut_pot             4.0  2.0  1.0
      basis_dep_cutoff    0.d0
  #
      radial_base         36 7.0
      radial_multiplier   2
       angular_grids specified
        division   0.4087  110
        division   0.5181  194
        division   0.6184  302
        division   0.7315  434
        division   0.7934  590
  #      division   0.9656  770
  #      division   1.4041  974
  #      outer_grid 974
        outer_grid 590
  ################################################################################
  #
  #  Definition of "minimal" basis
  #
  ################################################################################
  #     valence basis states
      valence      2  s   2.
      valence      2  p   4.
  #     ion occupancy
      ion_occ      2  s   1.
      ion_occ      2  p   3.
  ################################################################################
  #
  #  Suggested additional basis functions. For production calculations,
  #  uncomment them one after another (the most important basis functions are
  #  listed first).
  #
  #  Constructed for dimers: 1.0 A, 1.208 A, 1.5 A, 2.0 A, 3.0 A
  #
  ################################################################################
  #  "First tier" - improvements: -699.05 meV to -159.38 meV
       hydro 2 p 1.8
       hydro 3 d 7.6
       hydro 3 s 6.4
  #  "Second tier" - improvements: -49.91 meV to -5.39 meV
       hydro 4 f 11.6
       hydro 3 p 6.2
       hydro 3 d 5.6
       hydro 5 g 17.6
       hydro 1 s 0.75
  #  "Third tier" - improvements: -2.83 meV to -0.50 meV
  #     ionic 2 p auto
  #     hydro 4 f 10.8
  #     hydro 4 d 4.7
  #     hydro 2 s 6.8
  #  "Fourth tier" - improvements: -0.40 meV to -0.12 meV
  #     hydro 3 p 5
  #     hydro 3 s 3.3
  #     hydro 5 g 15.6
  #     hydro 4 f 17.6
  #     hydro 4 d 14
  # Further basis functions - -0.08 meV and below
  #     hydro 3 s 2.1
  #     hydro 4 d 11.6
  #     hydro 3 p 16
  #     hydro 2 s 17.2
  compute_forces .true.
  final_forces_cleaned .true.
  output dipole
  
  -----------------------------------------------------------------------
  Completed first pass over input file control.in .
  -----------------------------------------------------------------------
  
  
  -----------------------------------------------------------------------
  Parsing geometry.in (first pass over file, find array dimensions only).
  The contents of geometry.in will be repeated verbatim below
  unless switched off by setting 'verbatim_writeout .false.' .
  in the first line of geometry.in .
  -----------------------------------------------------------------------
  
  #
  # temporary structure-file for finite-difference calculation of forces
  # displacement   0.0025 of \# atom     0 direction     2
  #
  atom    0.00000000   -0.00000000    0.04485920   O
  atom   -0.00000000   -0.00000000    1.16514080   O
  
  -----------------------------------------------------------------------
  Completed first pass over input file geometry.in .
  -----------------------------------------------------------------------
  

  Basic array size parameters:
  | Number of species                 :        1
  | Number of atoms                   :        2
  | Max. basis fn. angular momentum   :        4
  | Max. atomic/ionic basis occupied n:        2
  | Max. number of basis fn. types    :        2
  | Max. radial fns per species/type  :        8
  | Max. logarithmic grid size        :     1301
  | Max. radial integration grid size :       73
  | Max. angular integration grid size:      590
  | Max. angular grid division number :        8
  | Radial grid for Hartree potential :     1301
  | Number of spin channels           :        1

------------------------------------------------------------
          Reading file control.in.
------------------------------------------------------------
  XC: Using PBE gradient-corrected functionals.
  Charged system requested: Charge =   0.100000E+01.
  Non-relativistic treatment of kinetic energy.
  Spin treatment: No spin polarisation.
  Convergence accuracy of self-consistent charge density:  0.1000E-03
  Convergence accuracy of sum of eigenvalues:  0.1000E-01
  Convergence accuracy of total energy:  0.1000E-07
  Maximum number of s.-c. iterations  :   100
  Restart file specified as : restart
  | Reading information from existing file.
 
  Reading configuration options for species O                   .
  | Found nuclear charge :   8.0000
  | Found atomic mass :    15.9994000000000      amu
  | Found l_max for Hartree potential  :   8
  | Found cutoff potl. onset [A], width [A], scale factor :    4.00000    2.00000    1.00000
  | Threshold for basis-dependent cutoff potential is   0.000000E+00
  | Found data for basic radial integration grid :    36 points, outermost radius =    7.000 A
  | Found multiplier for basic radial grid :   2
  | Found angular grid specification: user-specified.
  | Specified grid contains     6 separate shells.
  | Check grid settings after all constraints further below.
  | Found free-atom valence shell :  2 s   2.000
  | Found free-atom valence shell :  2 p   4.000
  | No ionic wave fns used. Skipping ion_occ.
  | No ionic wave fns used. Skipping ion_occ.
  | Found hydrogenic basis function :  2 p   1.800
  | Found hydrogenic basis function :  3 d   7.600
  | Found hydrogenic basis function :  3 s   6.400
  | Found hydrogenic basis function :  4 f  11.600
  | Found hydrogenic basis function :  3 p   6.200
  | Found hydrogenic basis function :  3 d   5.600
  | Found hydrogenic basis function :  5 g  17.600
  | Found hydrogenic basis function :  1 s   0.750
  Species O                   : Missing cutoff potential type.
  Defaulting to exp(1/x)/(1-x)^2 type cutoff potential.
  Species O : No 'logarithmic' tag. Using default grid for free atom:
  | Default logarithmic grid data [bohr] : 0.1000E-03 0.1000E+03 0.1012E+01
  Species O : On-site basis accuracy parameter (for Gram-Schmidt orthonormalisation) not specified.
  Using default value basis_acc =  0.1000000E-03.
  Species O                   : Using default innermost maximum threshold i_radial=  2 for radial functions.
  Species O                   : Default cutoff onset for free atom density etc. : 0.40000000E+01 AA.
  Species O                   : Basic radial grid will be enhanced according to radial_multiplier =   2, to contain    73 grid points.
  Forces will be computed.
  Cleaning forces before final output.
  Dipole moment will be written out.
 
  Finished reading input file 'control.in'. Consistency checks are next.
 
  Target number of points in a grid batch is not set. Defaulting to  100
  Method for grid partitioning is not set. Defaulting to parallel hash+maxmin partitioning.
  Batch size limit is not set. Defaulting to    200
  By default, will store active basis functions for each batch.
  If in need of memory, prune_basis_once .false. can be used to disable this option.
  communication_type for Hartree potential was not specified.
  Defaulting to calc_hartree .
  Defaulting to Pulay charge density mixer.
  Pulay mixer: Number of relevant iterations not set.
  Defaulting to    8 iterations.
  Pulay mixer: Number of initial linear mixing iterations not set.
  Defaulting to    0 iterations.
  Work space size for distributed Hartree potential not set.
  Defaulting to   0.200000E+03 MB.
  Mixing parameter for charge density mixing has not been set.
  Using default: charge_mix_param =     0.2000.
  Algorithm-dependent basis array size parameters:
  | n_max_pulay                         :        8
  Geometry relaxation not requested: no relaxation will be performed.
  Force calculation: scf convergence accuracy of forces not set.
  Defaulting to  0.1000E-03 eV/A.
  Handling of forces: Unphysical translation and rotation will be removed from forces.
  No accuracy limit for integral partition fn. given. Defaulting to  0.1000E-14.
  No threshold value for u(r) in integrations given. Defaulting to  0.1000E-05.
  No occupation type (smearing scheme) given. Defaulting to Gaussian broadening, width =  0.1000E-01 eV.
  No accuracy for occupation numbers given. Defaulting to  0.1000E-07.
  No threshold value for occupation numbers given. Defaulting to  0.0000E+00.
  No accuracy for fermi level given. Defaulting to  0.1000E-19.
  Maximum # of iterations to find E_F not set. Defaulting to  200.
  Preferred method for the eigenvalue solver ('KS_method') not specified in 'control.in'.
  Calling blacs routine to test compilation state
  The best choice would be 'elpa', but your version of FHI-aims is compiled without scalapack support.
  Defaulting to 'lapack_fast' instead (serial solution, time will not improve with more CPUs).
  Will not use alltoall communication since running on < 1024 CPUs.
  Threshold for basis singularities not set.
  Default threshold for basis singularities:  0.1000E-04
  partition_type (choice of integration weights) for integrals was not specified.
  | Using a version of the partition function of Stratmann and coworkers ('stratmann_smoother').
  | At each grid point, the set of atoms used to build the partition table is smoothly restricted to
  | only those atoms whose free-atom density would be non-zero at that grid point.
  Partitioning for Hartree potential was not defined. Using partition_type for integrals.
  | Adjusted default value of keyword multip_moments_threshold to:       0.10000000E-11
  | This value may affect high angular momentum components of the Hartree potential in periodic systems.
  No q(lm)/r^(l+1) cutoff set for long-range Hartree potential.
  | Using default value of  0.100000E-09 .
  | Verify using the multipole_threshold keyword.
  Defaulting to new monopole extrapolation.
  Density update method: automatic selection selected.
------------------------------------------------------------


------------------------------------------------------------
          Reading geometry description geometry.in.
------------------------------------------------------------
 * Warning: Initial charge and total charge of the system are inconsistent.
 * Selected charge in control.in:     1.0000* Sum of initial charges in geometry.in:     0.0000
  Input structure read successfully.
  The structure contains        2 atoms,  and a total of         15.000 electrons.

  Input geometry:
  | No unit cell requested.
  | Atomic structure:
  |       Atom                x [A]            y [A]            z [A]
  |    1: Species O              0.000000         0.000000         0.044859
  |    2: Species O              0.000000         0.000000         1.165141
  |

  | The smallest distance between any two atoms is         1.12028160 AA.
  |
  | The first atom of this pair is atom number                      1 .
  | The second atom of this pair is atom number                     2 .

  Number of empty states per atom not set in control.in - providing a guess from actual geometry.
  | Total number of empty states used during s.c.f. cycle:        6
  If you use a very high smearing, use empty_states (per atom!) in control.in to increase this value.

  Structure-dependent array size parameters: 
  | Maximum number of distinct radial functions  :       11
  | Maximum number of basis functions            :       78
  | Number of Kohn-Sham states (occupied + empty):       14
------------------------------------------------------------

------------------------------------------------------------
          Preparing all fixed parts of the calculation.
------------------------------------------------------------
  Determining machine precision:
    2.225073858507201E-308
  Setting up grids for atomic and cluster calculations.

  Creating wave function, potential, and density for free atoms.

  Species: O

  List of occupied orbitals and eigenvalues:
    n    l              occ      energy [Ha]    energy [eV]
    1    0           2.0000       -18.898576      -514.2564
    2    0           2.0000        -0.878795       -23.9132
    2    1           4.0000        -0.332075        -9.0362

  Creating fixed part of basis set: Ionic, confined, hydrogenic.
 
  O                    hydrogenic:
 
  List of hydrogenic basis orbitals: 
    n    l      effective z      eigenvalue [eV]  inner max. [A]     outer max. [A]     outer radius [A]   
    2    1         1.800000       -11.0118           1.178562           1.178562           5.432602
    3    2         7.600000       -87.3183           0.624125           0.624125           4.634338
    3    0         6.400000       -61.9210           0.061167           1.081902           5.110480
    4    3        11.600000      -114.4239           0.731631           0.731631           4.522403
    3    1         6.200000       -58.1114           0.255680           1.030270           5.110480
    3    2         5.600000       -47.4083           0.847233           0.847233           5.173339
    5    4        17.600000      -168.5800           0.749740           0.749740           4.051222
    1    0         0.750000        -7.6499           0.705284           0.705284           5.366593
 

  Adding cutoff potential to free-atom effective potential.
  Creating atomic-like basis functions for current effective potential.

  Species O                   :

  List of atomic basis orbitals and eigenvalues:
    n    l      energy [Ha]    energy [eV]    outer radius [A]
    1    0       -18.898576      -514.2564       1.415765
    2    0        -0.878795       -23.9132       5.048385
    2    1        -0.332075        -9.0362       5.301386

  Assembling full basis from fixed parts.
  | Species O :   atomic orbital   1 s accepted.
  | Species O :   atomic orbital   2 s accepted.
  | Species O :    hydro orbital   3 s accepted.
  | Species O :    hydro orbital   1 s accepted.
  | Species O :   atomic orbital   2 p accepted.
  | Species O :    hydro orbital   2 p accepted.
  | Species O :    hydro orbital   3 p accepted.
  | Species O :    hydro orbital   3 d accepted.
  | Species O :    hydro orbital   3 d accepted.
  | Species O :    hydro orbital   4 f accepted.
  | Species O :    hydro orbital   5 g accepted.
 
  Basis size parameters after reduction:
  | Total number of radial functions:       11
  | Total number of basis functions :       78
 
  Testing on-site integration grid accuracy.
  |  Species  Function  <phi|h_atom|phi> (log., in eV)  <phi|h_atom|phi> (rad., in eV)
           1        1               -514.2564144315               -514.2564099626
           1        2                -23.9132357102                -23.9132356433
           1        3                 17.5398579759                 17.5398338425
           1        4                 14.5207278950                 14.5207740449
           1        5                 -9.0362392718                 -9.0362394845
           1        6                  7.9056275927                  7.9056237490
           1        7                 33.4201658992                 33.4201612015
           1        8                 45.8231952720                 45.8231953152
           1        9                 52.1937595491                 52.1937593440
           1       10                 85.4062894308                 85.4062894578
           1       11                142.0975701139                142.0975701391

  Preparing densities etc. for the partition functions (integrals / Hartree potential).

  Preparations completed.
  max(cpu_time)          :      0.147 s.
  Wall clock time (cpu1) :      0.161 s.
------------------------------------------------------------

------------------------------------------------------------
          Begin self-consistency loop: Initialization.

          Date     :  20190722, Time     :  144422.492
------------------------------------------------------------

  Initializing index lists of integration centers etc. from given atomic structure:
  | Number of centers in hartree potential         :         2
  | Number of centers in hartree multipole         :         2
  | Number of centers in electron density summation:         2
  | Number of centers in basis integrals           :         2
  | Number of centers in integrals                 :         2
  | Number of centers in hamiltonian               :         2
  Partitioning the integration grid into batches with parallel hashing+maxmin method.
  | Number of batches:      744
  | Maximal batch size:     112
  | Minimal batch size:      49
  | Average batch size:      71.586
  | Standard deviation of batch sizes:      21.623

  Integration load balanced across     4 MPI tasks.
  Work distribution over tasks is as follows:
  Task     0 has      13380 integration points.
  Task     1 has      13301 integration points.
  Task     2 has      13300 integration points.
  Task     3 has      13279 integration points.
  Initializing partition tables, free-atom densities, potentials, etc. across the integration grid (initialize_grid_storage).
  | initialize_grid_storage: Actual outermost partition radius vs. multipole_radius_free
  | (-- VB: in principle, multipole_radius_free should be larger, hence this output)
  | Species        1: Confinement radius =              6.000000000000000 AA, multipole_radius_free =              6.064445521808699 AA.
  | Species        1: outer_partition_radius set to              6.064445521808699 AA .
  | Original list of interatomic distances with           2 x          2 entries is created.
  | Net number of integration points:    53260
  | of which are non-zero points    :    49986
  Obtaining max. number of non-zero basis functions in each batch (get_n_compute_maxes).
  | Maximal number of non-zero basis functions:       78 in task     0
  | Maximal number of non-zero basis functions:       78 in task     1
  | Maximal number of non-zero basis functions:       78 in task     2
  | Maximal number of non-zero basis functions:       78 in task     3
  Selecting the method for density update.
  Loop over occupied states selected for charge density update.
  Integrating Hamiltonian matrix: batch-based integration.
  Time summed over all CPUs for integration: real work        0.169 s, elapsed        0.172 s
  Integrating overlap matrix.
  Time summed over all CPUs for integration: real work        0.062 s, elapsed        0.063 s

  Reading cluster restart information from file restart
  Writing Kohn-Sham eigenvalues.

  State    Occupation    Eigenvalue [Ha]    Eigenvalue [eV]
      1       2.00000         -18.889630         -514.01299
      2       2.00000         -18.889404         -514.00683
      3       2.00000          -1.269640          -34.54866
      4       2.00000          -0.700708          -19.06722
      5       2.00000          -0.503622          -13.70425
      6       2.00000          -0.503622          -13.70425
      7       2.00000          -0.495082          -13.47188
      8       1.00000          -0.185915           -5.05901
      9       1.00000          -0.185915           -5.05901
     10       0.00000           0.098728            2.68652
     11       0.00000           0.105717            2.87671
     12       0.00000           0.132979            3.61854
     13       0.00000           0.000000            0.00000
     14       0.00000           0.000000            0.00000

  Highest occupied state (VBM) at     -5.05901137 eV
  | Occupation number:      1.00000052

  Lowest unoccupied state (CBM) at    -5.05901136 eV
  | Occupation number:      0.99999948

  Overall HOMO-LUMO gap:      0.00000001 eV.
*** get_ev_sum_p0 expected pure occ_numbers
*** sum(occ_numbers) =  1.6000000000000000E+01 instead of  1.5000000000000000E+01
  Calculating total energy contributions from superposition of free atom densities.
*** get_entropy_correction expected pure occ_numbers
*** sum(occ_numbers) =  1.6000000000000000E+01 instead of  1.5000000000000000E+01
*** get_penalty_energy expected pure occ_numbers
*** sum(occ_numbers) =  1.6000000000000000E+01 instead of  1.5000000000000000E+01

  Total energy components:
  | Sum of eigenvalues            :         -82.87524522 Ha       -2255.15016324 eV
  | XC energy correction          :         -16.82262304 Ha        -457.76686371 eV
  | XC potential correction       :          21.62973590 Ha         588.57506018 eV
  | Free-atom electrostatic energy:         -71.49642846 Ha       -1945.51680515 eV
  | Hartree energy correction     :           0.00000000 Ha           0.00000000 eV
  | Entropy correction            :          -0.00020734 Ha          -0.00564190 eV
  | ---------------------------
  | Total energy                  :        -149.56456082 Ha       -4069.85877192 eV
  | Total energy, T -> 0          :        -149.56476815 Ha       -4069.86441381 eV  <-- do not rely on this value for anything but (periodic) metals
  | Electronic free energy        :        -149.56497549 Ha       -4069.87005571 eV

  Derived energy quantities:
  | Kinetic energy                :         150.57532220 Ha        4097.36298865 eV
  | Electrostatic energy          :        -283.31725998 Ha       -7709.45489686 eV
  | Energy correction for multipole
  | error in Hartree potential    :           0.00000000 Ha           0.00000000 eV
  | Sum of eigenvalues per atom                           :       -1127.57508162 eV
  | Total energy (T->0) per atom                          :       -2034.93220691 eV  <-- do not rely on this value for anything but (periodic) metals
  | Electronic free energy per atom                       :       -2034.93502785 eV
  Initialize hartree_potential_storage
  Max. number of atoms included in rho_multipole:            2

  End scf initialization - timings             :  max(cpu_time)    wall_clock(cpu1)
  | Time for scf. initialization               :        0.127 s           0.126 s
  | Boundary condition initialization          :        0.000 s           0.001 s
  | Integration                                :        0.060 s           0.059 s
  | Solution of K.-S. eqns.                    :        0.002 s           0.002 s
  | Grid partitioning                          :        0.023 s           0.023 s
  | Preloading free-atom quantities on grid    :        0.017 s           0.017 s
  | Free-atom superposition energy             :        0.009 s           0.009 s
  | Total energy evaluation                    :        0.001 s           0.002 s
------------------------------------------------------------

------------------------------------------------------------
          Initial SCF-cycle to compute last known
          density from restart information.

  Date     :  20190722, Time     :  144422.620
------------------------------------------------------------
*** scf_solver:charge expected kweighted occ_numbers
*** sum(occ_numbers) =  1.6000000000000000E+01 instead of  1.5000000000000000E+01
  Evaluating new KS density.
*** update_density_and_forces_p2 expected kweighted occ_numbers
*** sum(occ_numbers) =  1.6000000000000000E+01 instead of  1.5000000000000000E+01
  Integration grid: deviation in total charge (<rho> - N_e) =   1.000000E+00

  Evaluating partitioned Hartree potential by multipole expansion.
  | Analytical far-field extrapolation by fixed multipoles:
  | Hartree multipole sum: apparent total charge =  -0.251654E-06
  Summing up the Hartree potential.
  Time summed over all CPUs for potential: real work        0.098 s, elapsed        0.099 s
  | RMS charge density error from multipole expansion :   0.651464E-03

  Integrating Hamiltonian matrix: batch-based integration.
  Time summed over all CPUs for integration: real work        0.166 s, elapsed        0.170 s

  Updating Kohn-Sham eigenvalues, eigenvectors, occupation numbers, and Fermi level.
  Solving generalized eigenproblem
  Updating Kohn-Sham eigenvalues and eigenfunctions.
  Transforming overlap matrix and checking for singularities.
  Overlap matrix is nonsingular:
  | Lowest eigenvalue:  0.183632E-03
  Solving real generalised eigenvalue problem by standard LAPACK (fast)
  Determining occupation numbers for Kohn-Sham eigenstates.
  | Chemical potential (Fermi level) in eV                 : -.50637823E+01
  | Error in electron count due to remaining E_F inaccuracy: 0.47300830E-10
  | Maximum occupation number of highest empty state:  0.00E+00

  Highest occupied state (VBM) at    -13.47187919 eV
  | Occupation number:      2.00000000

  Lowest unoccupied state (CBM) at    -5.05901325 eV
  | Occupation number:      0.50002538

  Overall HOMO-LUMO gap:      8.41286594 eV.

  Total energy components:
  | Sum of eigenvalues            :         -82.68933108 Ha       -2250.09118212 eV
  | XC energy correction          :         -16.91865779 Ha        -460.38010234 eV
  | XC potential correction       :          21.75459606 Ha         591.97267800 eV
  | Free-atom electrostatic energy:         -71.49642846 Ha       -1945.51680515 eV
  | Hartree energy correction     :          -0.66450592 Ha         -18.08212601 eV
  | Entropy correction            :          -0.00016515 Ha          -0.00449404 eV
  | ---------------------------
  | Total energy                  :        -150.01432719 Ha       -4082.09753761 eV
  | Total energy, T -> 0          :        -150.01449234 Ha       -4082.10203165 eV  <-- do not rely on this value for anything but (periodic) metals
  | Electronic free energy        :        -150.01465749 Ha       -4082.10652569 eV

  Derived energy quantities:
  | Kinetic energy                :         150.40589261 Ha        4092.75257496 eV
  | Electrostatic energy          :        -283.50156201 Ha       -7714.47001023 eV
  | Energy correction for multipole
  | error in Hartree potential    :          -0.00059888 Ha          -0.01629649 eV
  | Sum of eigenvalues per atom                           :       -1125.04559106 eV
  | Total energy (T->0) per atom                          :       -2041.05101582 eV  <-- do not rely on this value for anything but (periodic) metals
  | Electronic free energy per atom                       :       -2041.05326284 eV

  Self-consistency convergence accuracy:
  | Change of charge density      :  0.1359E+00
  | Change of sum of eigenvalues  :  0.5059E+01 eV
  | Change of total energy        : -0.1224E+02 eV

  End self-consistency iteration #     0       :  max(cpu_time)    wall_clock(cpu1)
  | Time for this iteration                    :        0.118 s           0.117 s
  | Charge density update                      :        0.033 s           0.032 s
  | Density mixing                             :        0.000 s           0.000 s
  | Hartree multipole update                   :        0.005 s           0.004 s
  | Hartree multipole summation                :        0.026 s           0.026 s
  | Integration                                :        0.043 s           0.043 s
  | Solution of K.-S. eqns.                    :        0.008 s           0.009 s
  | Total energy evaluation                    :        0.000 s           0.001 s
------------------------------------------------------------

------------------------------------------------------------
          Begin self-consistency iteration #    1

  Date     :  20190722, Time     :  144422.738
------------------------------------------------------------
  Evaluating new KS density.
  Integration grid: deviation in total charge (<rho> - N_e) =   4.749623E-11
  Pulay mixing of updated and previous charge densities.

  Evaluating partitioned Hartree potential by multipole expansion.
  | Analytical far-field extrapolation by fixed multipoles:
  | Hartree multipole sum: apparent total charge =   0.200000E+00
  Summing up the Hartree potential.
  Time summed over all CPUs for potential: real work        0.096 s, elapsed        0.097 s
  | RMS charge density error from multipole expansion :   0.572942E-03

  Integrating Hamiltonian matrix: batch-based integration.
  Time summed over all CPUs for integration: real work        0.165 s, elapsed        0.168 s

  Updating Kohn-Sham eigenvalues, eigenvectors, occupation numbers, and Fermi level.
  Solving generalized eigenproblem
  Updating Kohn-Sham eigenvalues and eigenfunctions.
  Solving real generalised eigenvalue problem by standard LAPACK (fast)
  Determining occupation numbers for Kohn-Sham eigenstates.
  | Chemical potential (Fermi level) in eV                 : -.81456541E+01
  | Error in electron count due to remaining E_F inaccuracy: -.85691454E-11
  | Maximum occupation number of highest empty state:  0.00E+00

  Writing Kohn-Sham eigenvalues.

  State    Occupation    Eigenvalue [Ha]    Eigenvalue [eV]
      1       2.00000         -19.044513         -518.22756
      2       2.00000         -19.044287         -518.22143
      3       2.00000          -1.393878          -37.92935
      4       2.00000          -0.812260          -22.10271
      5       2.00000          -0.617649          -16.80708
      6       2.00000          -0.617649          -16.80707
      7       2.00000          -0.606507          -16.50391
      8       0.50023          -0.299172           -8.14089
      9       0.49977          -0.299172           -8.14088
     10       0.00000           0.042756            1.16345
     11       0.00000           0.050695            1.37949
     12       0.00000           0.078036            2.12348
     13       0.00000           0.078036            2.12348
     14       0.00000           0.157523            4.28642

  Highest occupied state (VBM) at    -16.50390695 eV
  | Occupation number:      2.00000000

  Lowest unoccupied state (CBM) at    -8.14088721 eV
  | Occupation number:      0.50022594

  Overall HOMO-LUMO gap:      8.36301974 eV.

  Total energy components:
  | Sum of eigenvalues            :         -84.57265733 Ha       -2301.33909666 eV
  | XC energy correction          :         -16.76626663 Ha        -456.23332798 eV
  | XC potential correction       :          21.55503721 Ha         586.54240542 eV
  | Free-atom electrostatic energy:         -71.49642846 Ha       -1945.51680515 eV
  | Hartree energy correction     :           1.36238078 Ha          37.07226726 eV
  | Entropy correction            :          -0.00016515 Ha          -0.00449404 eV
  | ---------------------------
  | Total energy                  :        -149.91793443 Ha       -4079.47455710 eV
  | Total energy, T -> 0          :        -149.91809958 Ha       -4079.47905114 eV  <-- do not rely on this value for anything but (periodic) metals
  | Electronic free energy        :        -149.91826473 Ha       -4079.48354518 eV

  Derived energy quantities:
  | Kinetic energy                :         149.85322479 Ha        4077.71371840 eV
  | Electrostatic energy          :        -283.00489259 Ha       -7700.95494753 eV
  | Energy correction for multipole
  | error in Hartree potential    :          -0.00048338 Ha          -0.01315337 eV
  | Sum of eigenvalues per atom                           :       -1150.66954833 eV
  | Total energy (T->0) per atom                          :       -2039.73952557 eV  <-- do not rely on this value for anything but (periodic) metals
  | Electronic free energy per atom                       :       -2039.74177259 eV

  Self-consistency convergence accuracy:
  | Change of charge density      :  0.2167E+00
  | Change of sum of eigenvalues  : -0.5125E+02 eV
  | Change of total energy        :  0.2623E+01 eV

  End self-consistency iteration #     1       :  max(cpu_time)    wall_clock(cpu1)
  | Time for this iteration                    :        0.106 s           0.106 s
  | Charge density update                      :        0.030 s           0.030 s
  | Density mixing                             :        0.001 s           0.001 s
  | Hartree multipole update                   :        0.004 s           0.004 s
  | Hartree multipole summation                :        0.026 s           0.025 s
  | Integration                                :        0.043 s           0.043 s
  | Solution of K.-S. eqns.                    :        0.001 s           0.001 s
  | Total energy evaluation                    :        0.000 s           0.001 s
------------------------------------------------------------

------------------------------------------------------------
          Begin self-consistency iteration #    2

  Date     :  20190722, Time     :  144422.845
------------------------------------------------------------
  Evaluating new KS density.
  Integration grid: deviation in total charge (<rho> - N_e) =  -8.700596E-12
  Pulay mixing of updated and previous charge densities.

  Evaluating partitioned Hartree potential by multipole expansion.
  | Analytical far-field extrapolation by fixed multipoles:
  | Hartree multipole sum: apparent total charge =   0.551814E+00
  Summing up the Hartree potential.
  Time summed over all CPUs for potential: real work        0.096 s, elapsed        0.097 s
  | RMS charge density error from multipole expansion :   0.501907E-03

  Integrating Hamiltonian matrix: batch-based integration.
  Time summed over all CPUs for integration: real work        0.164 s, elapsed        0.170 s

  Updating Kohn-Sham eigenvalues, eigenvectors, occupation numbers, and Fermi level.
  Solving generalized eigenproblem
  Updating Kohn-Sham eigenvalues and eigenfunctions.
  Solving real generalised eigenvalue problem by standard LAPACK (fast)
  Determining occupation numbers for Kohn-Sham eigenstates.
  | Chemical potential (Fermi level) in eV                 : -.13068254E+02
  | Error in electron count due to remaining E_F inaccuracy: 0.96083141E-11
  | Maximum occupation number of highest empty state:  0.00E+00

  Highest occupied state (VBM) at    -21.32512432 eV
  | Occupation number:      2.00000000

  Lowest unoccupied state (CBM) at   -13.06353669 eV
  | Occupation number:      0.50469245

  Overall HOMO-LUMO gap:      8.26158763 eV.

  Total energy components:
  | Sum of eigenvalues            :         -87.48389829 Ha       -2380.55799398 eV
  | XC energy correction          :         -16.55194545 Ha        -450.40135180 eV
  | XC potential correction       :          21.27435153 Ha         578.90455939 eV
  | Free-atom electrostatic energy:         -71.49642846 Ha       -1945.51680515 eV
  | Hartree energy correction     :           4.43308756 Ha         120.63045001 eV
  | Entropy correction            :          -0.00016515 Ha          -0.00449392 eV
  | ---------------------------
  | Total energy                  :        -149.82483311 Ha       -4076.94114153 eV
  | Total energy, T -> 0          :        -149.82499826 Ha       -4076.94563545 eV  <-- do not rely on this value for anything but (periodic) metals
  | Electronic free energy        :        -149.82516341 Ha       -4076.95012937 eV

  Derived energy quantities:
  | Kinetic energy                :         149.15863000 Ha        4058.81283240 eV
  | Electrostatic energy          :        -282.43151767 Ha       -7685.35262213 eV
  | Energy correction for multipole
  | error in Hartree potential    :          -0.00037775 Ha          -0.01027920 eV
  | Sum of eigenvalues per atom                           :       -1190.27899699 eV
  | Total energy (T->0) per atom                          :       -2038.47281772 eV  <-- do not rely on this value for anything but (periodic) metals
  | Electronic free energy per atom                       :       -2038.47506468 eV

  Self-consistency convergence accuracy:
  | Change of charge density      :  0.1326E+00
  | Change of sum of eigenvalues  : -0.7922E+02 eV
  | Change of total energy        :  0.2533E+01 eV

  End self-consistency iteration #     2       :  max(cpu_time)    wall_clock(cpu1)
  | Time for this iteration                    :        0.107 s           0.106 s
  | Charge density update                      :        0.031 s           0.030 s
  | Density mixing                             :        0.001 s           0.002 s
  | Hartree multipole update                   :        0.004 s           0.004 s
  | Hartree multipole summation                :        0.026 s           0.025 s
  | Integration                                :        0.043 s           0.043 s
  | Solution of K.-S. eqns.                    :        0.001 s           0.001 s
  | Total energy evaluation                    :        0.000 s           0.000 s
------------------------------------------------------------

------------------------------------------------------------
          Begin self-consistency iteration #    3

  Date     :  20190722, Time     :  144422.953
------------------------------------------------------------
  Evaluating new KS density.
  Integration grid: deviation in total charge (<rho> - N_e) =   9.737988E-12
  Pulay mixing of updated and previous charge densities.

  Evaluating partitioned Hartree potential by multipole expansion.
  | Analytical far-field extrapolation by fixed multipoles:
  | Hartree multipole sum: apparent total charge =   0.101858E+01
  Summing up the Hartree potential.
  Time summed over all CPUs for potential: real work        0.096 s, elapsed        0.097 s
  | RMS charge density error from multipole expansion :   0.487121E-03

  Integrating Hamiltonian matrix: batch-based integration.
  Time summed over all CPUs for integration: real work        0.164 s, elapsed        0.167 s

  Updating Kohn-Sham eigenvalues, eigenvectors, occupation numbers, and Fermi level.
  Solving generalized eigenproblem
  Updating Kohn-Sham eigenvalues and eigenfunctions.
  Solving real generalised eigenvalue problem by standard LAPACK (fast)
  Determining occupation numbers for Kohn-Sham eigenstates.
  | Chemical potential (Fermi level) in eV                 : -.17968567E+02
  | Error in electron count due to remaining E_F inaccuracy: -.13212187E-09
  | Maximum occupation number of highest empty state:  0.00E+00

  Highest occupied state (VBM) at    -26.15392751 eV
  | Occupation number:      2.00000000

  Lowest unoccupied state (CBM) at   -17.96613562 eV
  | Occupation number:      0.73093870

  Overall HOMO-LUMO gap:      8.18779189 eV.

  Total energy components:
  | Sum of eigenvalues            :         -90.14934964 Ha       -2453.08861559 eV
  | XC energy correction          :         -16.42206142 Ha        -446.86702762 eV
  | XC potential correction       :          21.10415499 Ha         574.27327612 eV
  | Free-atom electrostatic energy:         -71.49642846 Ha       -1945.51680515 eV
  | Hartree energy correction     :           7.16998176 Ha         195.10513056 eV
  | Entropy correction            :          -0.00015400 Ha          -0.00419059 eV
  | ---------------------------
  | Total energy                  :        -149.79370277 Ha       -4076.09404168 eV
  | Total energy, T -> 0          :        -149.79385677 Ha       -4076.09823227 eV  <-- do not rely on this value for anything but (periodic) metals
  | Electronic free energy        :        -149.79401077 Ha       -4076.10242285 eV

  Derived energy quantities:
  | Kinetic energy                :         149.28428279 Ha        4062.23201872 eV
  | Electrostatic energy          :        -282.65592413 Ha       -7691.45903278 eV
  | Energy correction for multipole
  | error in Hartree potential    :          -0.00053239 Ha          -0.01448702 eV
  | Sum of eigenvalues per atom                           :       -1226.54430779 eV
  | Total energy (T->0) per atom                          :       -2038.04911613 eV  <-- do not rely on this value for anything but (periodic) metals
  | Electronic free energy per atom                       :       -2038.05121143 eV

  Self-consistency convergence accuracy:
  | Change of charge density      :  0.5896E-01
  | Change of sum of eigenvalues  : -0.7253E+02 eV
  | Change of total energy        :  0.8471E+00 eV

  End self-consistency iteration #     3       :  max(cpu_time)    wall_clock(cpu1)
  | Time for this iteration                    :        0.105 s           0.104 s
  | Charge density update                      :        0.030 s           0.030 s
  | Density mixing                             :        0.002 s           0.002 s
  | Hartree multipole update                   :        0.004 s           0.003 s
  | Hartree multipole summation                :        0.025 s           0.025 s
  | Integration                                :        0.042 s           0.042 s
  | Solution of K.-S. eqns.                    :        0.001 s           0.001 s
  | Total energy evaluation                    :        0.001 s           0.001 s
------------------------------------------------------------

------------------------------------------------------------
          Begin self-consistency iteration #    4

  Date     :  20190722, Time     :  144423.059
------------------------------------------------------------
  Evaluating new KS density.
  Integration grid: deviation in total charge (<rho> - N_e) =  -1.320934E-10
  Pulay mixing of updated and previous charge densities.

  Evaluating partitioned Hartree potential by multipole expansion.
  | Analytical far-field extrapolation by fixed multipoles:
  | Hartree multipole sum: apparent total charge =   0.102356E+01
  Summing up the Hartree potential.
  Time summed over all CPUs for potential: real work        0.096 s, elapsed        0.096 s
  | RMS charge density error from multipole expansion :   0.487466E-03

  Integrating Hamiltonian matrix: batch-based integration.
  Time summed over all CPUs for integration: real work        0.166 s, elapsed        0.167 s

  Updating Kohn-Sham eigenvalues, eigenvectors, occupation numbers, and Fermi level.
  Solving generalized eigenproblem
  Updating Kohn-Sham eigenvalues and eigenfunctions.
  Solving real generalised eigenvalue problem by standard LAPACK (fast)
  Determining occupation numbers for Kohn-Sham eigenstates.
  | Chemical potential (Fermi level) in eV                 : -.17989700E+02
  | Error in electron count due to remaining E_F inaccuracy: -.10818013E-11
  | Maximum occupation number of highest empty state:  0.00E+00

  Highest occupied state (VBM) at    -26.17604559 eV
  | Occupation number:      2.00000000

  Lowest unoccupied state (CBM) at   -17.98512973 eV
  | Occupation number:      0.51809591

  Overall HOMO-LUMO gap:      8.19091586 eV.

  Total energy components:
  | Sum of eigenvalues            :         -90.15600929 Ha       -2453.26983387 eV
  | XC energy correction          :         -16.42344212 Ha        -446.90459828 eV
  | XC potential correction       :          21.10596549 Ha         574.32254222 eV
  | Free-atom electrostatic energy:         -71.49642846 Ha       -1945.51680515 eV
  | Hartree energy correction     :           7.17627443 Ha         195.27636287 eV
  | Entropy correction            :          -0.00016509 Ha          -0.00449222 eV
  | ---------------------------
  | Total energy                  :        -149.79363995 Ha       -4076.09233222 eV
  | Total energy, T -> 0          :        -149.79380503 Ha       -4076.09682443 eV  <-- do not rely on this value for anything but (periodic) metals
  | Electronic free energy        :        -149.79397012 Ha       -4076.10131665 eV

  Derived energy quantities:
  | Kinetic energy                :         149.30600886 Ha        4062.82321530 eV
  | Electrostatic energy          :        -282.67620669 Ha       -7692.01094923 eV
  | Energy correction for multipole
  | error in Hartree potential    :          -0.00053872 Ha          -0.01465945 eV
  | Sum of eigenvalues per atom                           :       -1226.63491694 eV
  | Total energy (T->0) per atom                          :       -2038.04841222 eV  <-- do not rely on this value for anything but (periodic) metals
  | Electronic free energy per atom                       :       -2038.05065833 eV

  Self-consistency convergence accuracy:
  | Change of charge density      :  0.8358E-01
  | Change of sum of eigenvalues  : -0.1812E+00 eV
  | Change of total energy        :  0.1709E-02 eV

  End self-consistency iteration #     4       :  max(cpu_time)    wall_clock(cpu1)
  | Time for this iteration                    :        0.104 s           0.105 s
  | Charge density update                      :        0.030 s           0.030 s
  | Density mixing                             :        0.002 s           0.002 s
  | Hartree multipole update                   :        0.004 s           0.004 s
  | Hartree multipole summation                :        0.026 s           0.024 s
  | Integration                                :        0.042 s           0.043 s
  | Solution of K.-S. eqns.                    :        0.001 s           0.001 s
  | Total energy evaluation                    :        0.000 s           0.001 s
------------------------------------------------------------

------------------------------------------------------------
          Begin self-consistency iteration #    5

  Date     :  20190722, Time     :  144423.165
------------------------------------------------------------
  Evaluating new KS density.
  Integration grid: deviation in total charge (<rho> - N_e) =  -1.127987E-12
  Pulay mixing of updated and previous charge densities.

  Evaluating partitioned Hartree potential by multipole expansion.
  | Analytical far-field extrapolation by fixed multipoles:
  | Hartree multipole sum: apparent total charge =   0.993564E+00
  Summing up the Hartree potential.
  Time summed over all CPUs for potential: real work        0.107 s, elapsed        0.122 s
  | RMS charge density error from multipole expansion :   0.484988E-03

  Integrating Hamiltonian matrix: batch-based integration.
  Time summed over all CPUs for integration: real work        0.169 s, elapsed        0.171 s

  Updating Kohn-Sham eigenvalues, eigenvectors, occupation numbers, and Fermi level.
  Solving generalized eigenproblem
  Updating Kohn-Sham eigenvalues and eigenfunctions.
  Solving real generalised eigenvalue problem by standard LAPACK (fast)
  Determining occupation numbers for Kohn-Sham eigenstates.
  | Chemical potential (Fermi level) in eV                 : -.17461240E+02
  | Error in electron count due to remaining E_F inaccuracy: 0.20799362E-10
  | Maximum occupation number of highest empty state:  0.00E+00

  Highest occupied state (VBM) at    -25.66176554 eV
  | Occupation number:      2.00000000

  Lowest unoccupied state (CBM) at   -17.45648289 eV
  | Occupation number:      0.50111016

  Overall HOMO-LUMO gap:      8.20528265 eV.

  Total energy components:
  | Sum of eigenvalues            :         -89.83409079 Ha       -2444.50998565 eV
  | XC energy correction          :         -16.45046052 Ha        -447.63980634 eV
  | XC potential correction       :          21.14135004 Ha         575.28540481 eV
  | Free-atom electrostatic energy:         -71.49642846 Ha       -1945.51680515 eV
  | Hartree energy correction     :           6.84653800 Ha         186.30377796 eV
  | Entropy correction            :          -0.00016515 Ha          -0.00449403 eV
  | ---------------------------
  | Total energy                  :        -149.79309172 Ha       -4076.07741436 eV
  | Total energy, T -> 0          :        -149.79325688 Ha       -4076.08190840 eV  <-- do not rely on this value for anything but (periodic) metals
  | Electronic free energy        :        -149.79342203 Ha       -4076.08640243 eV

  Derived energy quantities:
  | Kinetic energy                :         149.44773873 Ha        4066.67988119 eV
  | Electrostatic energy          :        -282.79036994 Ha       -7695.11748922 eV
  | Energy correction for multipole
  | error in Hartree potential    :          -0.00056099 Ha          -0.01526522 eV
  | Sum of eigenvalues per atom                           :       -1222.25499282 eV
  | Total energy (T->0) per atom                          :       -2038.04095420 eV  <-- do not rely on this value for anything but (periodic) metals
  | Electronic free energy per atom                       :       -2038.04320121 eV

  Self-consistency convergence accuracy:
  | Change of charge density      :  0.2275E-01
  | Change of sum of eigenvalues  :  0.8760E+01 eV
  | Change of total energy        :  0.1492E-01 eV

  End self-consistency iteration #     5       :  max(cpu_time)    wall_clock(cpu1)
  | Time for this iteration                    :        0.122 s           0.123 s
  | Charge density update                      :        0.031 s           0.031 s
  | Density mixing                             :        0.002 s           0.002 s
  | Hartree multipole update                   :        0.005 s           0.005 s
  | Hartree multipole summation                :        0.034 s           0.034 s
  | Integration                                :        0.044 s           0.044 s
  | Solution of K.-S. eqns.                    :        0.005 s           0.005 s
  | Total energy evaluation                    :        0.001 s           0.001 s
------------------------------------------------------------

------------------------------------------------------------
          Begin self-consistency iteration #    6

  Date     :  20190722, Time     :  144423.290
------------------------------------------------------------
  Evaluating new KS density.
  Integration grid: deviation in total charge (<rho> - N_e) =   2.073364E-11
  Pulay mixing of updated and previous charge densities.

  Evaluating partitioned Hartree potential by multipole expansion.
  | Analytical far-field extrapolation by fixed multipoles:
  | Hartree multipole sum: apparent total charge =   0.999236E+00
  Summing up the Hartree potential.
  Time summed over all CPUs for potential: real work        0.099 s, elapsed        0.099 s
  | RMS charge density error from multipole expansion :   0.496320E-03

  Integrating Hamiltonian matrix: batch-based integration.
  Time summed over all CPUs for integration: real work        0.166 s, elapsed        0.169 s

  Updating Kohn-Sham eigenvalues, eigenvectors, occupation numbers, and Fermi level.
  Solving generalized eigenproblem
  Updating Kohn-Sham eigenvalues and eigenfunctions.
  Solving real generalised eigenvalue problem by standard LAPACK (fast)
  Determining occupation numbers for Kohn-Sham eigenstates.
  | Chemical potential (Fermi level) in eV                 : -.17424965E+02
  | Error in electron count due to remaining E_F inaccuracy: -.24322055E-09
  | Maximum occupation number of highest empty state:  0.00E+00

  Highest occupied state (VBM) at    -25.62496578 eV
  | Occupation number:      2.00000000

  Lowest unoccupied state (CBM) at   -17.42022649 eV
  | Occupation number:      0.50276786

  Overall HOMO-LUMO gap:      8.20473929 eV.

  Total energy components:
  | Sum of eigenvalues            :         -89.80901329 Ha       -2443.82759210 eV
  | XC energy correction          :         -16.45583831 Ha        -447.78614364 eV
  | XC potential correction       :          21.14850060 Ha         575.47998156 eV
  | Free-atom electrostatic energy:         -71.49642846 Ha       -1945.51680515 eV
  | Hartree energy correction     :           6.81971068 Ha         185.57376941 eV
  | Entropy correction            :          -0.00016515 Ha          -0.00449400 eV
  | ---------------------------
  | Total energy                  :        -149.79306878 Ha       -4076.07678992 eV
  | Total energy, T -> 0          :        -149.79323393 Ha       -4076.08128392 eV  <-- do not rely on this value for anything but (periodic) metals
  | Electronic free energy        :        -149.79339908 Ha       -4076.08577791 eV

  Derived energy quantities:
  | Kinetic energy                :         149.46733384 Ha        4067.21309134 eV
  | Electrostatic energy          :        -282.80456430 Ha       -7695.50373761 eV
  | Energy correction for multipole
  | error in Hartree potential    :          -0.00055262 Ha          -0.01503759 eV
  | Sum of eigenvalues per atom                           :       -1221.91379605 eV
  | Total energy (T->0) per atom                          :       -2038.04064196 eV  <-- do not rely on this value for anything but (periodic) metals
  | Electronic free energy per atom                       :       -2038.04288896 eV

  Self-consistency convergence accuracy:
  | Change of charge density      :  0.6631E-02
  | Change of sum of eigenvalues  :  0.6824E+00 eV
  | Change of total energy        :  0.6244E-03 eV

  End self-consistency iteration #     6       :  max(cpu_time)    wall_clock(cpu1)
  | Time for this iteration                    :        0.109 s           0.110 s
  | Charge density update                      :        0.031 s           0.030 s
  | Density mixing                             :        0.003 s           0.004 s
  | Hartree multipole update                   :        0.005 s           0.004 s
  | Hartree multipole summation                :        0.025 s           0.025 s
  | Integration                                :        0.043 s           0.043 s
  | Solution of K.-S. eqns.                    :        0.002 s           0.002 s
  | Total energy evaluation                    :        0.000 s           0.000 s
------------------------------------------------------------

------------------------------------------------------------
          Begin self-consistency iteration #    7

  Date     :  20190722, Time     :  144423.401
------------------------------------------------------------
  Evaluating new KS density.
  Integration grid: deviation in total charge (<rho> - N_e) =  -2.432508E-10
  Pulay mixing of updated and previous charge densities.

  Evaluating partitioned Hartree potential by multipole expansion.
  | Analytical far-field extrapolation by fixed multipoles:
  | Hartree multipole sum: apparent total charge =   0.999642E+00
  Summing up the Hartree potential.
  Time summed over all CPUs for potential: real work        0.097 s, elapsed        0.097 s
  | RMS charge density error from multipole expansion :   0.496982E-03

  Integrating Hamiltonian matrix: batch-based integration.
  Time summed over all CPUs for integration: real work        0.166 s, elapsed        0.168 s

  Updating Kohn-Sham eigenvalues, eigenvectors, occupation numbers, and Fermi level.
  Solving generalized eigenproblem
  Updating Kohn-Sham eigenvalues and eigenfunctions.
  Solving real generalised eigenvalue problem by standard LAPACK (fast)
  Determining occupation numbers for Kohn-Sham eigenstates.
  | Chemical potential (Fermi level) in eV                 : -.17426525E+02
  | Error in electron count due to remaining E_F inaccuracy: -.11741719E-08
  | Maximum occupation number of highest empty state:  0.00E+00

  Highest occupied state (VBM) at    -25.62796670 eV
  | Occupation number:      2.00000000

  Lowest unoccupied state (CBM) at   -17.42181879 eV
  | Occupation number:      0.50569788

  Overall HOMO-LUMO gap:      8.20614791 eV.

  Total energy components:
  | Sum of eigenvalues            :         -89.81014451 Ha       -2443.85837434 eV
  | XC energy correction          :         -16.45573421 Ha        -447.78331072 eV
  | XC potential correction       :          21.14837556 Ha         575.47657882 eV
  | Free-atom electrostatic energy:         -71.49642846 Ha       -1945.51680515 eV
  | Hartree energy correction     :           6.82086295 Ha         185.60512438 eV
  | Entropy correction            :          -0.00016515 Ha          -0.00449386 eV
  | ---------------------------
  | Total energy                  :        -149.79306867 Ha       -4076.07678701 eV
  | Total energy, T -> 0          :        -149.79323382 Ha       -4076.08128086 eV  <-- do not rely on this value for anything but (periodic) metals
  | Electronic free energy        :        -149.79339896 Ha       -4076.08577472 eV

  Derived energy quantities:
  | Kinetic energy                :         149.46471114 Ha        4067.14172399 eV
  | Electrostatic energy          :        -282.80204560 Ha       -7695.43520028 eV
  | Energy correction for multipole
  | error in Hartree potential    :          -0.00055110 Ha          -0.01499626 eV
  | Sum of eigenvalues per atom                           :       -1221.92918717 eV
  | Total energy (T->0) per atom                          :       -2038.04064043 eV  <-- do not rely on this value for anything but (periodic) metals
  | Electronic free energy per atom                       :       -2038.04288736 eV

  Self-consistency convergence accuracy:
  | Change of charge density      :  0.1143E-02
  | Change of sum of eigenvalues  : -0.3078E-01 eV
  | Change of total energy        :  0.2916E-05 eV

  End self-consistency iteration #     7       :  max(cpu_time)    wall_clock(cpu1)
  | Time for this iteration                    :        0.106 s           0.106 s
  | Charge density update                      :        0.030 s           0.030 s
  | Density mixing                             :        0.003 s           0.003 s
  | Hartree multipole update                   :        0.004 s           0.004 s
  | Hartree multipole summation                :        0.025 s           0.025 s
  | Integration                                :        0.043 s           0.042 s
  | Solution of K.-S. eqns.                    :        0.001 s           0.001 s
  | Total energy evaluation                    :        0.000 s           0.001 s
------------------------------------------------------------

------------------------------------------------------------
          Begin self-consistency iteration #    8

  Date     :  20190722, Time     :  144423.508
------------------------------------------------------------
  Evaluating new KS density.
  Integration grid: deviation in total charge (<rho> - N_e) =  -1.174039E-09
  Pulay mixing of updated and previous charge densities.

  Evaluating partitioned Hartree potential by multipole expansion.
  | Analytical far-field extrapolation by fixed multipoles:
  | Hartree multipole sum: apparent total charge =   0.999771E+00
  Summing up the Hartree potential.
  Time summed over all CPUs for potential: real work        0.096 s, elapsed        0.097 s
  | RMS charge density error from multipole expansion :   0.497245E-03

  Integrating Hamiltonian matrix: batch-based integration.
  Time summed over all CPUs for integration: real work        0.165 s, elapsed        0.168 s

  Updating Kohn-Sham eigenvalues, eigenvectors, occupation numbers, and Fermi level.
  Solving generalized eigenproblem
  Updating Kohn-Sham eigenvalues and eigenfunctions.
  Solving real generalised eigenvalue problem by standard LAPACK (fast)
  Determining occupation numbers for Kohn-Sham eigenstates.
  | Chemical potential (Fermi level) in eV                 : -.17424858E+02
  | Error in electron count due to remaining E_F inaccuracy: -.45579540E-09
  | Maximum occupation number of highest empty state:  0.00E+00

  Highest occupied state (VBM) at    -25.62653157 eV
  | Occupation number:      2.00000000

  Lowest unoccupied state (CBM) at   -17.42014175 eV
  | Occupation number:      0.50474880

  Overall HOMO-LUMO gap:      8.20638982 eV.

  Total energy components:
  | Sum of eigenvalues            :         -89.80899977 Ha       -2443.82722418 eV
  | XC energy correction          :         -16.45591261 Ha        -447.78816537 eV
  | XC potential correction       :          21.14861243 Ha         575.48302444 eV
  | Free-atom electrostatic energy:         -71.49642846 Ha       -1945.51680515 eV
  | Hartree energy correction     :           6.81965987 Ha         185.57238690 eV
  | Entropy correction            :          -0.00016515 Ha          -0.00449391 eV
  | ---------------------------
  | Total energy                  :        -149.79306854 Ha       -4076.07678335 eV
  | Total energy, T -> 0          :        -149.79323368 Ha       -4076.08127727 eV  <-- do not rely on this value for anything but (periodic) metals
  | Electronic free energy        :        -149.79339883 Ha       -4076.08577118 eV

  Derived energy quantities:
  | Kinetic energy                :         149.46547677 Ha        4067.16255797 eV
  | Electrostatic energy          :        -282.80263270 Ha       -7695.45117595 eV
  | Energy correction for multipole
  | error in Hartree potential    :          -0.00055095 Ha          -0.01499205 eV
  | Sum of eigenvalues per atom                           :       -1221.91361209 eV
  | Total energy (T->0) per atom                          :       -2038.04063863 eV  <-- do not rely on this value for anything but (periodic) metals
  | Electronic free energy per atom                       :       -2038.04288559 eV

  Self-consistency convergence accuracy:
  | Change of charge density      :  0.2048E-02
  | Change of sum of eigenvalues  :  0.3115E-01 eV
  | Change of total energy        :  0.3654E-05 eV

  End self-consistency iteration #     8       :  max(cpu_time)    wall_clock(cpu1)
  | Time for this iteration                    :        0.107 s           0.107 s
  | Charge density update                      :        0.030 s           0.030 s
  | Density mixing                             :        0.003 s           0.003 s
  | Hartree multipole update                   :        0.004 s           0.004 s
  | Hartree multipole summation                :        0.025 s           0.025 s
  | Integration                                :        0.042 s           0.042 s
  | Solution of K.-S. eqns.                    :        0.001 s           0.001 s
  | Total energy evaluation                    :        0.000 s           0.000 s
------------------------------------------------------------

------------------------------------------------------------
          Begin self-consistency iteration #    9

  Date     :  20190722, Time     :  144423.616
------------------------------------------------------------
  Evaluating new KS density.
  Integration grid: deviation in total charge (<rho> - N_e) =  -4.556036E-10
  Pulay mixing of updated and previous charge densities.

  Evaluating partitioned Hartree potential by multipole expansion.
  | Analytical far-field extrapolation by fixed multipoles:
  | Hartree multipole sum: apparent total charge =   0.100006E+01
  Summing up the Hartree potential.
  Time summed over all CPUs for potential: real work        0.096 s, elapsed        0.096 s
  | RMS charge density error from multipole expansion :   0.497849E-03

  Integrating Hamiltonian matrix: batch-based integration.
  Time summed over all CPUs for integration: real work        0.164 s, elapsed        0.167 s

  Updating Kohn-Sham eigenvalues, eigenvectors, occupation numbers, and Fermi level.
  Solving generalized eigenproblem
  Updating Kohn-Sham eigenvalues and eigenfunctions.
  Solving real generalised eigenvalue problem by standard LAPACK (fast)
  Determining occupation numbers for Kohn-Sham eigenstates.
  | Chemical potential (Fermi level) in eV                 : -.17420633E+02
  | Error in electron count due to remaining E_F inaccuracy: -.10201617E-10
  | Maximum occupation number of highest empty state:  0.00E+00

  Highest occupied state (VBM) at    -25.62278108 eV
  | Occupation number:      2.00000000

  Lowest unoccupied state (CBM) at   -17.41587110 eV
  | Occupation number:      0.50064404

  Overall HOMO-LUMO gap:      8.20690999 eV.

  Total energy components:
  | Sum of eigenvalues            :         -89.80609765 Ha       -2443.74825353 eV
  | XC energy correction          :         -16.45635879 Ha        -447.80030661 eV
  | XC potential correction       :          21.14920398 Ha         575.49912135 eV
  | Free-atom electrostatic energy:         -71.49642846 Ha       -1945.51680515 eV
  | Hartree energy correction     :           6.81661255 Ha         185.48946519 eV
  | Entropy correction            :          -0.00016515 Ha          -0.00449404 eV
  | ---------------------------
  | Total energy                  :        -149.79306837 Ha       -4076.07677874 eV
  | Total energy, T -> 0          :        -149.79323352 Ha       -4076.08127278 eV  <-- do not rely on this value for anything but (periodic) metals
  | Electronic free energy        :        -149.79339867 Ha       -4076.08576681 eV

  Derived energy quantities:
  | Kinetic energy                :         149.46752760 Ha        4067.21836378 eV
  | Electrostatic energy          :        -282.80423717 Ha       -7695.49483591 eV
  | Energy correction for multipole
  | error in Hartree potential    :          -0.00055066 Ha          -0.01498431 eV
  | Sum of eigenvalues per atom                           :       -1221.87412677 eV
  | Total energy (T->0) per atom                          :       -2038.04063639 eV  <-- do not rely on this value for anything but (periodic) metals
  | Electronic free energy per atom                       :       -2038.04288341 eV

  Self-consistency convergence accuracy:
  | Change of charge density      :  0.1693E-02
  | Change of sum of eigenvalues  :  0.7897E-01 eV
  | Change of total energy        :  0.4611E-05 eV

  End self-consistency iteration #     9       :  max(cpu_time)    wall_clock(cpu1)
  | Time for this iteration                    :        0.105 s           0.105 s
  | Charge density update                      :        0.030 s           0.029 s
  | Density mixing                             :        0.002 s           0.003 s
  | Hartree multipole update                   :        0.004 s           0.004 s
  | Hartree multipole summation                :        0.025 s           0.025 s
  | Integration                                :        0.043 s           0.042 s
  | Solution of K.-S. eqns.                    :        0.001 s           0.001 s
  | Total energy evaluation                    :        0.000 s           0.001 s
------------------------------------------------------------

------------------------------------------------------------
          Begin self-consistency iteration #   10

  Date     :  20190722, Time     :  144423.722
------------------------------------------------------------
  Evaluating new KS density.
  Integration grid: deviation in total charge (<rho> - N_e) =  -1.013234E-11
  Pulay mixing of updated and previous charge densities.

  Evaluating partitioned Hartree potential by multipole expansion.
  | Analytical far-field extrapolation by fixed multipoles:
  | Hartree multipole sum: apparent total charge =   0.100004E+01
  Summing up the Hartree potential.
  Time summed over all CPUs for potential: real work        0.097 s, elapsed        0.098 s
  | RMS charge density error from multipole expansion :   0.497871E-03

  Integrating Hamiltonian matrix: batch-based integration.
  Time summed over all CPUs for integration: real work        0.163 s, elapsed        0.166 s

  Updating Kohn-Sham eigenvalues, eigenvectors, occupation numbers, and Fermi level.
  Solving generalized eigenproblem
  Updating Kohn-Sham eigenvalues and eigenfunctions.
  Solving real generalised eigenvalue problem by standard LAPACK (fast)
  Determining occupation numbers for Kohn-Sham eigenstates.
  | Chemical potential (Fermi level) in eV                 : -.17420075E+02
  | Error in electron count due to remaining E_F inaccuracy: -.53947957E-11
  | Maximum occupation number of highest empty state:  0.00E+00

  Highest occupied state (VBM) at    -25.62222829 eV
  | Occupation number:      2.00000000

  Lowest unoccupied state (CBM) at   -17.41530932 eV
  | Occupation number:      0.50031784

  Overall HOMO-LUMO gap:      8.20691897 eV.

  Total energy components:
  | Sum of eigenvalues            :         -89.80576238 Ha       -2443.73913052 eV
  | XC energy correction          :         -16.45639163 Ha        -447.80120007 eV
  | XC potential correction       :          21.14924737 Ha         575.50030196 eV
  | Free-atom electrostatic energy:         -71.49642846 Ha       -1945.51680515 eV
  | Hartree energy correction     :           6.81626674 Ha         185.48005513 eV
  | Entropy correction            :          -0.00016515 Ha          -0.00449404 eV
  | ---------------------------
  | Total energy                  :        -149.79306836 Ha       -4076.07677865 eV
  | Total energy, T -> 0          :        -149.79323352 Ha       -4076.08127269 eV  <-- do not rely on this value for anything but (periodic) metals
  | Electronic free energy        :        -149.79339867 Ha       -4076.08576673 eV

  Derived energy quantities:
  | Kinetic energy                :         149.46764438 Ha        4067.22154155 eV
  | Electrostatic energy          :        -282.80432112 Ha       -7695.49712013 eV
  | Energy correction for multipole
  | error in Hartree potential    :          -0.00055063 Ha          -0.01498351 eV
  | Sum of eigenvalues per atom                           :       -1221.86956526 eV
  | Total energy (T->0) per atom                          :       -2038.04063635 eV  <-- do not rely on this value for anything but (periodic) metals
  | Electronic free energy per atom                       :       -2038.04288336 eV

  Self-consistency convergence accuracy:
  | Change of charge density      :  0.2312E-03
  | Change of sum of eigenvalues  :  0.9123E-02 eV
  | Change of total energy        :  0.8804E-07 eV

  End self-consistency iteration #    10       :  max(cpu_time)    wall_clock(cpu1)
  | Time for this iteration                    :        0.105 s           0.106 s
  | Charge density update                      :        0.030 s           0.030 s
  | Density mixing                             :        0.003 s           0.003 s
  | Hartree multipole update                   :        0.004 s           0.003 s
  | Hartree multipole summation                :        0.026 s           0.025 s
  | Integration                                :        0.042 s           0.042 s
  | Solution of K.-S. eqns.                    :        0.001 s           0.002 s
  | Total energy evaluation                    :        0.000 s           0.001 s
------------------------------------------------------------

------------------------------------------------------------
          Begin self-consistency iteration #   11

  Date     :  20190722, Time     :  144423.829
------------------------------------------------------------
  Evaluating new KS density.
  Integration grid: deviation in total charge (<rho> - N_e) =  -5.403678E-12
  Pulay mixing of updated and previous charge densities.

  Evaluating partitioned Hartree potential by multipole expansion.
  | Analytical far-field extrapolation by fixed multipoles:
  | Hartree multipole sum: apparent total charge =   0.999993E+00
  Summing up the Hartree potential.
  Time summed over all CPUs for potential: real work        0.095 s, elapsed        0.096 s
  | RMS charge density error from multipole expansion :   0.497932E-03

  Integrating Hamiltonian matrix: batch-based integration.
  Time summed over all CPUs for integration: real work        0.163 s, elapsed        0.166 s

  Updating Kohn-Sham eigenvalues, eigenvectors, occupation numbers, and Fermi level.
  Solving generalized eigenproblem
  Updating Kohn-Sham eigenvalues and eigenfunctions.
  Solving real generalised eigenvalue problem by standard LAPACK (fast)
  Determining occupation numbers for Kohn-Sham eigenstates.
  | Chemical potential (Fermi level) in eV                 : -.17418576E+02
  | Error in electron count due to remaining E_F inaccuracy: -.10516032E-11
  | Maximum occupation number of highest empty state:  0.00E+00

  Highest occupied state (VBM) at    -25.62073641 eV
  | Occupation number:      2.00000000

  Lowest unoccupied state (CBM) at   -17.41380685 eV
  | Occupation number:      0.50000359

  Overall HOMO-LUMO gap:      8.20692956 eV.

  Total energy components:
  | Sum of eigenvalues            :         -89.80485993 Ha       -2443.71457354 eV
  | XC energy correction          :         -16.45648150 Ha        -447.80364556 eV
  | XC potential correction       :          21.14936611 Ha         575.50353324 eV
  | Free-atom electrostatic energy:         -71.49642846 Ha       -1945.51680515 eV
  | Hartree energy correction     :           6.81533541 Ha         185.45471244 eV
  | Entropy correction            :          -0.00016515 Ha          -0.00449404 eV
  | ---------------------------
  | Total energy                  :        -149.79306836 Ha       -4076.07677857 eV
  | Total energy, T -> 0          :        -149.79323351 Ha       -4076.08127261 eV  <-- do not rely on this value for anything but (periodic) metals
  | Electronic free energy        :        -149.79339867 Ha       -4076.08576665 eV

  Derived energy quantities:
  | Kinetic energy                :         149.46797369 Ha        4067.23050247 eV
  | Electrostatic energy          :        -282.80456055 Ha       -7695.50363547 eV
  | Energy correction for multipole
  | error in Hartree potential    :          -0.00055056 Ha          -0.01498138 eV
  | Sum of eigenvalues per atom                           :       -1221.85728677 eV
  | Total energy (T->0) per atom                          :       -2038.04063630 eV  <-- do not rely on this value for anything but (periodic) metals
  | Electronic free energy per atom                       :       -2038.04288332 eV

  Self-consistency convergence accuracy:
  | Change of charge density      :  0.1199E-03
  | Change of sum of eigenvalues  :  0.2456E-01 eV
  | Change of total energy        :  0.8357E-07 eV

  End self-consistency iteration #    11       :  max(cpu_time)    wall_clock(cpu1)
  | Time for this iteration                    :        0.105 s           0.105 s
  | Charge density update                      :        0.030 s           0.030 s
  | Density mixing                             :        0.003 s           0.003 s
  | Hartree multipole update                   :        0.004 s           0.003 s
  | Hartree multipole summation                :        0.025 s           0.025 s
  | Integration                                :        0.043 s           0.041 s
  | Solution of K.-S. eqns.                    :        0.001 s           0.002 s
  | Total energy evaluation                    :        0.000 s           0.001 s
------------------------------------------------------------

------------------------------------------------------------
          Begin self-consistency iteration #   12

  Date     :  20190722, Time     :  144423.935
------------------------------------------------------------
  Evaluating new KS density.
  Integration grid: deviation in total charge (<rho> - N_e) =  -1.143974E-12
  Pulay mixing of updated and previous charge densities.

  Evaluating partitioned Hartree potential by multipole expansion.
  | Analytical far-field extrapolation by fixed multipoles:
  | Hartree multipole sum: apparent total charge =   0.999994E+00
  Summing up the Hartree potential.
  Time summed over all CPUs for potential: real work        0.096 s, elapsed        0.096 s
  | RMS charge density error from multipole expansion :   0.497932E-03

  Integrating Hamiltonian matrix: batch-based integration.
  Time summed over all CPUs for integration: real work        0.163 s, elapsed        0.166 s

  Updating Kohn-Sham eigenvalues, eigenvectors, occupation numbers, and Fermi level.
  Solving generalized eigenproblem
  Updating Kohn-Sham eigenvalues and eigenfunctions.
  Solving real generalised eigenvalue problem by standard LAPACK (fast)
  Determining occupation numbers for Kohn-Sham eigenstates.
  | Chemical potential (Fermi level) in eV                 : -.17418576E+02
  | Error in electron count due to remaining E_F inaccuracy: -.11013412E-11
  | Maximum occupation number of highest empty state:  0.00E+00

  Highest occupied state (VBM) at    -25.62073658 eV
  | Occupation number:      2.00000000

  Lowest unoccupied state (CBM) at   -17.41380657 eV
  | Occupation number:      0.50000013

  Overall HOMO-LUMO gap:      8.20693001 eV.

  Total energy components:
  | Sum of eigenvalues            :         -89.80485936 Ha       -2443.71455795 eV
  | XC energy correction          :         -16.45648198 Ha        -447.80365866 eV
  | XC potential correction       :          21.14936676 Ha         575.50355080 eV
  | Free-atom electrostatic energy:         -71.49642846 Ha       -1945.51680515 eV
  | Hartree energy correction     :           6.81533468 Ha         185.45469238 eV
  | Entropy correction            :          -0.00016515 Ha          -0.00449404 eV
  | ---------------------------
  | Total energy                  :        -149.79306836 Ha       -4076.07677857 eV
  | Total energy, T -> 0          :        -149.79323351 Ha       -4076.08127261 eV  <-- do not rely on this value for anything but (periodic) metals
[...]
  | Total energy (T->0) per atom                          :       -2038.04063630 eV  <-- do not rely on this value for anything but (periodic) metals
  | Electronic free energy per atom                       :       -2038.04288332 eV

  Self-consistency convergence accuracy:
  | Change of charge density      :  0.1754E-05
  | Change of sum of eigenvalues  :  0.1559E-04 eV
  | Change of total energy        : -0.6264E-10 eV

  Electronic self-consistency reached - switching on the force computation.

  End self-consistency iteration #    12       :  max(cpu_time)    wall_clock(cpu1)
  | Time for this iteration                    :        0.106 s           0.105 s
  | Charge density & force component update    :        0.031 s           0.030 s
  | Density mixing                             :        0.003 s           0.003 s
  | Hartree multipole update                   :        0.004 s           0.003 s
  | Hartree multipole summation                :        0.025 s           0.025 s
  | Integration                                :        0.042 s           0.042 s
  | Solution of K.-S. eqns.                    :        0.001 s           0.001 s
  | Total energy evaluation                    :        0.001 s           0.001 s
------------------------------------------------------------

------------------------------------------------------------
          Begin self-consistency iteration #   13

  Date     :  20190722, Time     :  144424.042
------------------------------------------------------------
  Evaluating new KS density.
  Integration grid: deviation in total charge (<rho> - N_e) =  -1.064038E-12
  Pulay mixing of updated and previous charge densities.

  Evaluating partitioned Hartree potential by multipole expansion.
  | Analytical far-field extrapolation by fixed multipoles:
  | Hartree multipole sum: apparent total charge =   0.999998E+00
  Summing up the Hartree potential.
  Time summed over all CPUs for potential: real work        0.257 s, elapsed        0.264 s
  | RMS charge density error from multipole expansion :   0.497933E-03

  Integrating Hamiltonian matrix: batch-based integration.
  Time summed over all CPUs for integration: real work        0.164 s, elapsed        0.167 s

  Updating Kohn-Sham eigenvalues, eigenvectors, occupation numbers, and Fermi level.
  Solving generalized eigenproblem
  Updating Kohn-Sham eigenvalues and eigenfunctions.
  Solving real generalised eigenvalue problem by standard LAPACK (fast)
  Determining occupation numbers for Kohn-Sham eigenstates.
  | Chemical potential (Fermi level) in eV                 : -.17418615E+02
  | Error in electron count due to remaining E_F inaccuracy: -.84732221E-12
  | Maximum occupation number of highest empty state:  0.00E+00

  Highest occupied state (VBM) at    -25.62077645 eV
  | Occupation number:      2.00000000

  Lowest unoccupied state (CBM) at   -17.41384517 eV
  | Occupation number:      0.50000004

  Overall HOMO-LUMO gap:      8.20693128 eV.

  Total energy components:
  | Sum of eigenvalues            :         -89.80488063 Ha       -2443.71513679 eV
  | XC energy correction          :         -16.45648155 Ha        -447.80364684 eV
  | XC potential correction       :          21.14936622 Ha         575.50353615 eV
  | Free-atom electrostatic energy:         -71.49642846 Ha       -1945.51680515 eV
  | Hartree energy correction     :           6.81535605 Ha         185.45527405 eV
  | Entropy correction            :          -0.00016515 Ha          -0.00449404 eV
  | ---------------------------
  | Total energy                  :        -149.79306836 Ha       -4076.07677857 eV
  | Total energy, T -> 0          :        -149.79323351 Ha       -4076.08127261 eV  <-- do not rely on this value for anything but (periodic) metals
  | Electronic free energy        :        -149.79339867 Ha       -4076.08576665 eV

  Derived energy quantities:
  | Kinetic energy                :         149.46798267 Ha        4067.23074685 eV
  | Electrostatic energy          :        -282.80456948 Ha       -7695.50387858 eV
  | Energy correction for multipole
  | error in Hartree potential    :          -0.00055055 Ha          -0.01498133 eV
  | Sum of eigenvalues per atom                           :       -1221.85756839 eV
  | Total energy (T->0) per atom                          :       -2038.04063630 eV  <-- do not rely on this value for anything but (periodic) metals
  | Electronic free energy per atom                       :       -2038.04288332 eV

  atomic forces [eV/Ang]:
  -----------------------
  atom #    1
   Hellmann-Feynman              :  0.984829E-10  0.709425E-10 -0.158244E+02
   Ionic forces                  :  0.000000E+00  0.000000E+00  0.000000E+00
   Multipole                     : -0.155084E-13 -0.137912E-12 -0.592429E-01
   Pulay + GGA                   :  0.000000E+00  0.000000E+00  0.000000E+00
   ----------------------------------------------------------------
   Total forces(   1)            :  0.984674E-10  0.708046E-10 -0.158837E+02
  atom #    2
   Hellmann-Feynman              :  0.302319E-10 -0.721644E-11  0.158244E+02
   Ionic forces                  :  0.000000E+00  0.000000E+00  0.000000E+00
   Multipole                     : -0.498248E-12  0.530569E-12  0.592429E-01
   Pulay + GGA                   :  0.000000E+00  0.000000E+00  0.000000E+00
   ----------------------------------------------------------------
   Total forces(   2)            :  0.297337E-10 -0.668587E-11  0.158837E+02


  Self-consistency convergence accuracy:
  | Change of charge density      :  0.9073E-06
  | Change of sum of eigenvalues  : -0.5788E-03 eV
  | Change of total energy        :  0.3743E-09 eV
  | Change of forces              :  0.1588E+02 eV/A

  End self-consistency iteration #    13       :  max(cpu_time)    wall_clock(cpu1)
  | Time for this iteration                    :        0.148 s           0.147 s
  | Charge density & force component update    :        0.030 s           0.029 s
  | Density mixing                             :        0.003 s           0.003 s
  | Hartree multipole update                   :        0.004 s           0.004 s
  | Hartree multipole summation                :        0.067 s           0.066 s
  | Integration                                :        0.042 s           0.042 s
  | Solution of K.-S. eqns.                    :        0.001 s           0.001 s
  | Total energy evaluation                    :        0.001 s           0.001 s
------------------------------------------------------------

------------------------------------------------------------
          Begin self-consistency iteration #   14

  Date     :  20190722, Time     :  144424.191
------------------------------------------------------------
  Evaluating new KS density and force components.
  Integration grid: deviation in total charge (<rho> - N_e) =  -9.894308E-13
  Pulay mixing of updated and previous charge densities.

  Evaluating partitioned Hartree potential by multipole expansion.
  | Analytical far-field extrapolation by fixed multipoles:
  | Hartree multipole sum: apparent total charge =   0.999998E+00
  Summing up the Hartree potential.
  Time summed over all CPUs for potential: real work        0.256 s, elapsed        0.263 s
  | RMS charge density error from multipole expansion :   0.497933E-03

  Integrating Hamiltonian matrix: batch-based integration.
  Time summed over all CPUs for integration: real work        0.164 s, elapsed        0.167 s

  Updating Kohn-Sham eigenvalues, eigenvectors, occupation numbers, and Fermi level.
  Solving generalized eigenproblem
  Updating Kohn-Sham eigenvalues and eigenfunctions.
  Solving real generalised eigenvalue problem by standard LAPACK (fast)
  Determining occupation numbers for Kohn-Sham eigenstates.
  | Chemical potential (Fermi level) in eV                 : -.17418615E+02
  | Error in electron count due to remaining E_F inaccuracy: -.84554586E-12
  | Maximum occupation number of highest empty state:  0.00E+00

  Highest occupied state (VBM) at    -25.62077668 eV
  | Occupation number:      2.00000000

  Lowest unoccupied state (CBM) at   -17.41384540 eV
  | Occupation number:      0.50000006

  Overall HOMO-LUMO gap:      8.20693128 eV.

  Total energy components:
  | Sum of eigenvalues            :         -89.80488075 Ha       -2443.71514008 eV
  | XC energy correction          :         -16.45648154 Ha        -447.80364680 eV
  | XC potential correction       :          21.14936622 Ha         575.50353612 eV
  | Free-atom electrostatic energy:         -71.49642846 Ha       -1945.51680515 eV
  | Hartree energy correction     :           6.81535617 Ha         185.45527734 eV
  | Entropy correction            :          -0.00016515 Ha          -0.00449404 eV
  | ---------------------------
  | Total energy                  :        -149.79306836 Ha       -4076.07677857 eV
  | Total energy, T -> 0          :        -149.79323351 Ha       -4076.08127261 eV  <-- do not rely on this value for anything but (periodic) metals
  | Electronic free energy        :        -149.79339867 Ha       -4076.08576665 eV

  Derived energy quantities:
  | Kinetic energy                :         149.46798267 Ha        4067.23074690 eV
  | Electrostatic energy          :        -282.80456949 Ha       -7695.50387867 eV
  | Energy correction for multipole
  | error in Hartree potential    :          -0.00055055 Ha          -0.01498133 eV
  | Sum of eigenvalues per atom                           :       -1221.85757004 eV
  | Total energy (T->0) per atom                          :       -2038.04063630 eV  <-- do not rely on this value for anything but (periodic) metals
  | Electronic free energy per atom                       :       -2038.04288332 eV

  atomic forces [eV/Ang]:
  -----------------------
  atom #    1
   Hellmann-Feynman              :  0.720845E-10  0.582883E-10 -0.158244E+02
   Ionic forces                  :  0.000000E+00  0.000000E+00  0.000000E+00
   Multipole                     : -0.791764E-13 -0.221278E-12 -0.592429E-01
   Pulay + GGA                   : -0.185885E-10 -0.962109E-11  0.156089E+02
   ----------------------------------------------------------------
   Total forces(   1)            :  0.534168E-10  0.484459E-10 -0.274727E+00
  atom #    2
   Hellmann-Feynman              :  0.251006E-10  0.687625E-12  0.158244E+02
   Ionic forces                  :  0.000000E+00  0.000000E+00  0.000000E+00
   Multipole                     : -0.419870E-12  0.273131E-12  0.592429E-01
   Pulay + GGA                   : -0.242775E-11  0.789269E-11 -0.156089E+02
   ----------------------------------------------------------------
   Total forces(   2)            :  0.222530E-10  0.885344E-11  0.274727E+00


  Self-consistency convergence accuracy:
  | Change of charge density      :  0.2824E-07
  | Change of sum of eigenvalues  : -0.3295E-05 eV
  | Change of total energy        :  0.1547E-11 eV
  | Change of forces              :  0.3152E-05 eV/A

  Writing Kohn-Sham eigenvalues.

  State    Occupation    Eigenvalue [Ha]    Eigenvalue [eV]
      1       2.00000         -19.412511         -528.24129
      2       2.00000         -19.412285         -528.23516
      3       2.00000          -1.746478          -47.52407
      4       2.00000          -1.151323          -31.32909
      5       2.00000          -0.959162          -26.10013
      6       2.00000          -0.959162          -26.10013
      7       2.00000          -0.941546          -25.62078
      8       0.50000          -0.639947          -17.41385
      9       0.50000          -0.639947          -17.41385
     10       0.00000          -0.178378           -4.85392
     11       0.00000          -0.160936           -4.37928
     12       0.00000          -0.115434           -3.14113
     13       0.00000          -0.115434           -3.14113
     14       0.00000          -0.059855           -1.62873

  Highest occupied state (VBM) at    -25.62077668 eV
  | Occupation number:      2.00000000

  Lowest unoccupied state (CBM) at   -17.41384540 eV
  | Occupation number:      0.50000006

  Overall HOMO-LUMO gap:      8.20693128 eV.

  Self-consistency cycle converged.

  End self-consistency iteration #    14       :  max(cpu_time)    wall_clock(cpu1)
  | Time for this iteration                    :        0.219 s           0.220 s
  | Charge density & force component update    :        0.101 s           0.101 s
  | Density mixing                             :        0.003 s           0.003 s
  | Hartree multipole update                   :        0.005 s           0.003 s
  | Hartree multipole summation                :        0.066 s           0.067 s
  | Integration                                :        0.042 s           0.042 s
  | Solution of K.-S. eqns.                    :        0.001 s           0.001 s
  | Total energy evaluation                    :        0.001 s           0.001 s
------------------------------------------------------------
  Writing cluster restart information to file restart
  ------------------------------------------------------------
   Computing monopole / dipole moments for complete molecule:
  | Total electronic charge [e]         :          0.150000000834004E+02
  | Total ionic charge [e]              :          0.160000000000000E+02
  | Total charge [e]                    :          0.999999916599622E+00
 * Warning: The system has a total charge of      0.99999992 .
 * The dipole moment depends on the choice of the origin.
  | Total dipole moment [eAng]          :         -0.169641988664870E-14         0.698579834274710E-15         0.604999949542741E+00
  | Absolute dipole moment              :          0.604999949542741E+00 eAng              /                   0.290548571528651E+01 Debye  .
  Removing unitary transformations (pure translations, rotations) from forces on atoms.
  Atomic forces before filtering:
  | Net force on center of mass :   0.756698E-10  0.572994E-10 -0.125473E-10 eV/A
  | Net torque on center of mass:   0.221774E-10 -0.174562E-10  0.000000E+00 eV
  Atomic forces after filtering:
  | Net force on center of mass :   0.155769E-25  0.519230E-26  0.000000E+00 eV/A
  | Net torque on center of mass:  -0.290842E-26  0.290842E-26  0.000000E+00 eV

  Energy and forces in a compact form:
  | Total energy uncorrected      :         -0.407607677856863E+04 eV
  | Total energy corrected        :         -0.407608127260792E+04 eV  <-- do not rely on this value for anything but (periodic) metals
  | Electronic free energy        :         -0.407608576664721E+04 eV
  Total atomic forces (unitary forces cleaned) [eV/Ang]:
  |   1          0.519230158900898E-26          0.000000000000000E+00         -0.274726809298215E+00
  |   2          0.103846031780180E-25          0.519230158900898E-26          0.274726809298215E+00

  ------------------------------------ 
  Start decomposition of the XC Energy 
  ------------------------------------ 
  Hartree-Fock part   :          0.000000000 Ha              0.000000000 eV
  ------------------------------------ 
  X Energy            :        -15.952863420 Ha           -434.099500408 eV
  C Energy GGA        :         -0.503618123 Ha            -13.704146393 eV
  Total XC Energy     :        -16.456481544 Ha           -447.803646801 eV
  LDA X and C from self-consistent density 
  X Energy LDA        :        -14.468619983 Ha           -393.711181553 eV
  C Energy LDA        :         -1.061785385 Ha            -28.892650378 eV
  ------------------------------------ 
  End decomposition of the XC Energy 
  ------------------------------------ 

------------------------------------------------------------------------------
  Final output of selected total energy values:

  The following output summarizes some interesting total energy values
  at the end of a run (AFTER all relaxation, molecular dynamics, etc.).

  | Total energy of the DFT / Hartree-Fock s.c.f. calculation      :          -4076.076778569 eV
  | Final zero-broadening corrected energy (caution - metals only) :          -4076.081272608 eV
  | For reference only, the value of 1 Hartree used in FHI-aims is :             27.211384500 eV

  Before relying on these values, please be sure to understand exactly which
  total energy value is referred to by a given number. Different objects may
  all carry the same name 'total energy'. Definitions:

  Total energy of the DFT / Hartree-Fock s.c.f. calculation:
  | Note that this energy does not include ANY quantities calculated after the
  | s.c.f. cycle, in particular not ANY RPA, MP2, etc. many-body perturbation terms.

  Final zero-broadening corrected energy:
  | For metallic systems only, a broadening of the occupation numbers at the Fermi
  | level can be extrapolated back to zero broadening by an electron-gas inspired
  | formula. For all systems that are not real metals, this value can be
  | meaningless and should be avoided.

------------------------------------------------------------------------------
  Methods described in the following list of references were used in this FHI-aims run.
  If you publish the results, please make sure to cite these reference if they apply.
  FHI-aims is an academic code, and for our developers (often, Ph.D. students
  and postdocs), scientific credit in the community is essential.
  Thank you for helping us!

  For any use of FHI-aims, please cite:

    Volker Blum, Ralf Gehrke, Felix Hanke, Paula Havu, Ville Havu,
    Xinguo Ren, Karsten Reuter, and Matthias Scheffler
    'Ab initio molecular simulations with numeric atom-centered orbitals'
    Computer Physics Communications 180, 2175-2196 (2009)
    http://dx.doi.org/10.1016/j.cpc.2009.06.022


  For the real-space grid partitioning and parallelization used in this calculation, please cite:

    Ville Havu, Volker Blum, Paula Havu, and Matthias Scheffler,
    'Efficient O(N) integration for all-electron electronic structure calculation'
    'using numerically tabulated basis functions'
    Journal of Computational Physics 228, 8367-8379 (2009).
    http://dx.doi.org/10.1016/j.jcp.2009.08.008

  Of course, there are many other important community references, e.g., those cited in the
  above references. Our list is limited to references that describe implementations in the
  FHI-aims code. The reason is purely practical (length of this list) - please credit others as well.

------------------------------------------------------------
          Leaving FHI-aims.
          Date     :  20190722, Time     :  144424.456

          Computational steps:
          | Number of self-consistency cycles          :           14

          Detailed time accounting                     :  max(cpu_time)    wall_clock(cpu1)
          | Total time                                 :        2.126 s           2.141 s
          | Preparation time                           :        0.147 s           0.161 s
          | Grid partitioning                          :        0.023 s           0.023 s
          | Preloading free-atom quantities on grid    :        0.017 s           0.017 s
          | Free-atom superposition energy             :        0.009 s           0.009 s
          | Total time for integrations                :        0.699 s           0.695 s
          | Total time for solution of K.-S. equations :        0.029 s           0.032 s
          | Total time for density & force components  :        0.528 s           0.522 s
          | Total time for mixing                      :        0.034 s           0.037 s
          | Total time for Hartree multipole update    :        0.064 s           0.056 s
          | Total time for Hartree multipole sum       :        0.472 s           0.467 s
          | Total time for total energy evaluation     :        0.006 s           0.014 s

          Have a nice day.
------------------------------------------------------------
