  MPI-parallelism will be employed.
------------------------------------------------------------
          Invoking FHI-aims ...
          Version 160328_3
          Compiled on 2019/06/10 at 14:55:49 on host taito-login3.csc.fi.

          When using FHI-aims, please cite the following reference:

          Volker Blum, Ralf Gehrke, Felix Hanke, Paula Havu,
          Ville Havu, Xinguo Ren, Karsten Reuter, and Matthias Scheffler,
          'Ab Initio Molecular Simulations with Numeric Atom-Centered Orbitals',
          Computer Physics Communications 180, 2175-2196 (2009)

          For any questions about FHI-aims, please visit the aimsclub website
          with its forums and wiki. Contributions to both the forums and the
          wiki are warmly encouraged - they are for you, and everyone is welcome there.

------------------------------------------------------------

  Date     :  20190722, Time     :  144517.063
  Time zero on CPU 1             :   0.719880000000000E-01  s.
  Internal wall clock time zero  :           333038717.063  s.

  Using        4 parallel tasks.
  Task        0 on host c798 reporting.
  Task        1 on host c798 reporting.
  Task        2 on host c798 reporting.
  Task        3 on host c798 reporting.

  Performing system and environment tests:
  | Environment variable OMP_NUM_THREADS correctly set to 1.
  | Maximum stacksize for task 0: unlimited
  | Maximum stacksize for task 1: unlimited
  | Maximum stacksize for task 2: unlimited
  | Maximum stacksize for task 3: unlimited
  | Current stacksize for task 0: 1024 [Mb]
  | Current stacksize for task 1: 1024 [Mb]
  | Current stacksize for task 2: 1024 [Mb]
  | Current stacksize for task 3: 1024 [Mb]
  | Checking for scalapack...
  | No scalapack compiled in.

  Obtaining array dimensions for all initial allocations:
  
  -----------------------------------------------------------------------
  Parsing control.in (first pass over file, find array dimensions only).
  The contents of control.in will be repeated verbatim below
  unless switched off by setting 'verbatim_writeout .false.' .
  in the first line of control.in .
  -----------------------------------------------------------------------
  
    #  Physical model settings
    #
  
    xc                            pbe
    charge                        1.0
    relativistic                  none
  #  default_initial_moment        0.0
    spin                          none
  #  vdw_correction_hirshfeld
  
    #  SCF convergence settings
    #
  
    sc_accuracy_rho               1E-4
    sc_accuracy_eev               1E-2
    sc_accuracy_etot              1E-8
    sc_iter_limit                 100
  
    #  Occupation settings
    #
  
    restart                       restart
  #  force_occupation_projector      5 1 1.0 5 5 # ion 4
  
    #  Relaxation
    #
  
    #####relax_geometry                bfgs    1.e-4
  
  
  ################################################################################
  #
  #  FHI-aims code project
  #  VB, Fritz-Haber Institut, 2007
  #
  #  Suggested "safe" defaults for O atom (to be pasted into control.in file)
  #
  ################################################################################
    species        O
  #     global species definitions
      nucleus             8
      mass                15.9994
  #
      l_hartree           8
  #
      cut_pot             4.0  2.0  1.0
      basis_dep_cutoff    0.d0
  #
      radial_base         36 7.0
      radial_multiplier   2
       angular_grids specified
        division   0.4087  110
        division   0.5181  194
        division   0.6184  302
        division   0.7315  434
        division   0.7934  590
  #      division   0.9656  770
  #      division   1.4041  974
  #      outer_grid 974
        outer_grid 590
  ################################################################################
  #
  #  Definition of "minimal" basis
  #
  ################################################################################
  #     valence basis states
      valence      2  s   2.
      valence      2  p   4.
  #     ion occupancy
      ion_occ      2  s   1.
      ion_occ      2  p   3.
  ################################################################################
  #
  #  Suggested additional basis functions. For production calculations,
  #  uncomment them one after another (the most important basis functions are
  #  listed first).
  #
  #  Constructed for dimers: 1.0 A, 1.208 A, 1.5 A, 2.0 A, 3.0 A
  #
  ################################################################################
  #  "First tier" - improvements: -699.05 meV to -159.38 meV
       hydro 2 p 1.8
       hydro 3 d 7.6
       hydro 3 s 6.4
  #  "Second tier" - improvements: -49.91 meV to -5.39 meV
       hydro 4 f 11.6
       hydro 3 p 6.2
       hydro 3 d 5.6
       hydro 5 g 17.6
       hydro 1 s 0.75
  #  "Third tier" - improvements: -2.83 meV to -0.50 meV
  #     ionic 2 p auto
  #     hydro 4 f 10.8
  #     hydro 4 d 4.7
  #     hydro 2 s 6.8
  #  "Fourth tier" - improvements: -0.40 meV to -0.12 meV
  #     hydro 3 p 5
  #     hydro 3 s 3.3
  #     hydro 5 g 15.6
  #     hydro 4 f 17.6
  #     hydro 4 d 14
  # Further basis functions - -0.08 meV and below
  #     hydro 3 s 2.1
  #     hydro 4 d 11.6
  #     hydro 3 p 16
  #     hydro 2 s 17.2
  compute_forces .true.
  final_forces_cleaned .true.
  output dipole
  
  -----------------------------------------------------------------------
  Completed first pass over input file control.in .
  -----------------------------------------------------------------------
  
  
  -----------------------------------------------------------------------
  Parsing geometry.in (first pass over file, find array dimensions only).
  The contents of geometry.in will be repeated verbatim below
  unless switched off by setting 'verbatim_writeout .false.' .
  in the first line of geometry.in .
  -----------------------------------------------------------------------
  
  #
  # temporary structure-file for finite-difference calculation of forces
  # displacement  -0.0025 of \# atom     0 direction     2
  #
  atom   -0.00000000   -0.00000000    0.03985921   O
  atom    0.00000000    0.00000000    1.16514079   O
  
  -----------------------------------------------------------------------
  Completed first pass over input file geometry.in .
  -----------------------------------------------------------------------
  

  Basic array size parameters:
  | Number of species                 :        1
  | Number of atoms                   :        2
  | Max. basis fn. angular momentum   :        4
  | Max. atomic/ionic basis occupied n:        2
  | Max. number of basis fn. types    :        2
  | Max. radial fns per species/type  :        8
  | Max. logarithmic grid size        :     1301
  | Max. radial integration grid size :       73
  | Max. angular integration grid size:      590
  | Max. angular grid division number :        8
  | Radial grid for Hartree potential :     1301
  | Number of spin channels           :        1

------------------------------------------------------------
          Reading file control.in.
------------------------------------------------------------
  XC: Using PBE gradient-corrected functionals.
  Charged system requested: Charge =   0.100000E+01.
  Non-relativistic treatment of kinetic energy.
  Spin treatment: No spin polarisation.
  Convergence accuracy of self-consistent charge density:  0.1000E-03
  Convergence accuracy of sum of eigenvalues:  0.1000E-01
  Convergence accuracy of total energy:  0.1000E-07
  Maximum number of s.-c. iterations  :   100
  Restart file specified as : restart
  | Reading information from existing file.
 
  Reading configuration options for species O                   .
  | Found nuclear charge :   8.0000
  | Found atomic mass :    15.9994000000000      amu
  | Found l_max for Hartree potential  :   8
  | Found cutoff potl. onset [A], width [A], scale factor :    4.00000    2.00000    1.00000
  | Threshold for basis-dependent cutoff potential is   0.000000E+00
  | Found data for basic radial integration grid :    36 points, outermost radius =    7.000 A
  | Found multiplier for basic radial grid :   2
  | Found angular grid specification: user-specified.
  | Specified grid contains     6 separate shells.
  | Check grid settings after all constraints further below.
  | Found free-atom valence shell :  2 s   2.000
  | Found free-atom valence shell :  2 p   4.000
  | No ionic wave fns used. Skipping ion_occ.
  | No ionic wave fns used. Skipping ion_occ.
  | Found hydrogenic basis function :  2 p   1.800
  | Found hydrogenic basis function :  3 d   7.600
  | Found hydrogenic basis function :  3 s   6.400
  | Found hydrogenic basis function :  4 f  11.600
  | Found hydrogenic basis function :  3 p   6.200
  | Found hydrogenic basis function :  3 d   5.600
  | Found hydrogenic basis function :  5 g  17.600
  | Found hydrogenic basis function :  1 s   0.750
  Species O                   : Missing cutoff potential type.
  Defaulting to exp(1/x)/(1-x)^2 type cutoff potential.
  Species O : No 'logarithmic' tag. Using default grid for free atom:
  | Default logarithmic grid data [bohr] : 0.1000E-03 0.1000E+03 0.1012E+01
  Species O : On-site basis accuracy parameter (for Gram-Schmidt orthonormalisation) not specified.
  Using default value basis_acc =  0.1000000E-03.
  Species O                   : Using default innermost maximum threshold i_radial=  2 for radial functions.
  Species O                   : Default cutoff onset for free atom density etc. : 0.40000000E+01 AA.
  Species O                   : Basic radial grid will be enhanced according to radial_multiplier =   2, to contain    73 grid points.
  Forces will be computed.
  Cleaning forces before final output.
  Dipole moment will be written out.
 
  Finished reading input file 'control.in'. Consistency checks are next.
 
  Target number of points in a grid batch is not set. Defaulting to  100
  Method for grid partitioning is not set. Defaulting to parallel hash+maxmin partitioning.
  Batch size limit is not set. Defaulting to    200
  By default, will store active basis functions for each batch.
  If in need of memory, prune_basis_once .false. can be used to disable this option.
  communication_type for Hartree potential was not specified.
  Defaulting to calc_hartree .
  Defaulting to Pulay charge density mixer.
  Pulay mixer: Number of relevant iterations not set.
  Defaulting to    8 iterations.
  Pulay mixer: Number of initial linear mixing iterations not set.
  Defaulting to    0 iterations.
  Work space size for distributed Hartree potential not set.
  Defaulting to   0.200000E+03 MB.
  Mixing parameter for charge density mixing has not been set.
  Using default: charge_mix_param =     0.2000.
  Algorithm-dependent basis array size parameters:
  | n_max_pulay                         :        8
  Geometry relaxation not requested: no relaxation will be performed.
  Force calculation: scf convergence accuracy of forces not set.
  Defaulting to  0.1000E-03 eV/A.
  Handling of forces: Unphysical translation and rotation will be removed from forces.
  No accuracy limit for integral partition fn. given. Defaulting to  0.1000E-14.
  No threshold value for u(r) in integrations given. Defaulting to  0.1000E-05.
  No occupation type (smearing scheme) given. Defaulting to Gaussian broadening, width =  0.1000E-01 eV.
  No accuracy for occupation numbers given. Defaulting to  0.1000E-07.
  No threshold value for occupation numbers given. Defaulting to  0.0000E+00.
  No accuracy for fermi level given. Defaulting to  0.1000E-19.
  Maximum # of iterations to find E_F not set. Defaulting to  200.
  Preferred method for the eigenvalue solver ('KS_method') not specified in 'control.in'.
  Calling blacs routine to test compilation state
  The best choice would be 'elpa', but your version of FHI-aims is compiled without scalapack support.
  Defaulting to 'lapack_fast' instead (serial solution, time will not improve with more CPUs).
  Will not use alltoall communication since running on < 1024 CPUs.
  Threshold for basis singularities not set.
  Default threshold for basis singularities:  0.1000E-04
  partition_type (choice of integration weights) for integrals was not specified.
  | Using a version of the partition function of Stratmann and coworkers ('stratmann_smoother').
  | At each grid point, the set of atoms used to build the partition table is smoothly restricted to
  | only those atoms whose free-atom density would be non-zero at that grid point.
  Partitioning for Hartree potential was not defined. Using partition_type for integrals.
  | Adjusted default value of keyword multip_moments_threshold to:       0.10000000E-11
  | This value may affect high angular momentum components of the Hartree potential in periodic systems.
  No q(lm)/r^(l+1) cutoff set for long-range Hartree potential.
  | Using default value of  0.100000E-09 .
  | Verify using the multipole_threshold keyword.
  Defaulting to new monopole extrapolation.
  Density update method: automatic selection selected.
------------------------------------------------------------


------------------------------------------------------------
          Reading geometry description geometry.in.
------------------------------------------------------------
 * Warning: Initial charge and total charge of the system are inconsistent.
 * Selected charge in control.in:     1.0000* Sum of initial charges in geometry.in:     0.0000
  Input structure read successfully.
  The structure contains        2 atoms,  and a total of         15.000 electrons.

  Input geometry:
  | No unit cell requested.
  | Atomic structure:
  |       Atom                x [A]            y [A]            z [A]
  |    1: Species O              0.000000         0.000000         0.039859
  |    2: Species O              0.000000         0.000000         1.165141
  |

  | The smallest distance between any two atoms is         1.12528158 AA.
  |
  | The first atom of this pair is atom number                      1 .
  | The second atom of this pair is atom number                     2 .

  Number of empty states per atom not set in control.in - providing a guess from actual geometry.
  | Total number of empty states used during s.c.f. cycle:        6
  If you use a very high smearing, use empty_states (per atom!) in control.in to increase this value.

  Structure-dependent array size parameters: 
  | Maximum number of distinct radial functions  :       11
  | Maximum number of basis functions            :       78
  | Number of Kohn-Sham states (occupied + empty):       14
------------------------------------------------------------

------------------------------------------------------------
          Preparing all fixed parts of the calculation.
------------------------------------------------------------
  Determining machine precision:
    2.225073858507201E-308
  Setting up grids for atomic and cluster calculations.

  Creating wave function, potential, and density for free atoms.

  Species: O

  List of occupied orbitals and eigenvalues:
    n    l              occ      energy [Ha]    energy [eV]
    1    0           2.0000       -18.898576      -514.2564
    2    0           2.0000        -0.878795       -23.9132
    2    1           4.0000        -0.332075        -9.0362

  Creating fixed part of basis set: Ionic, confined, hydrogenic.
 
  O                    hydrogenic:
 
  List of hydrogenic basis orbitals: 
    n    l      effective z      eigenvalue [eV]  inner max. [A]     outer max. [A]     outer radius [A]   
    2    1         1.800000       -11.0118           1.178562           1.178562           5.432602
    3    2         7.600000       -87.3183           0.624125           0.624125           4.634338
    3    0         6.400000       -61.9210           0.061167           1.081902           5.110480
    4    3        11.600000      -114.4239           0.731631           0.731631           4.522403
    3    1         6.200000       -58.1114           0.255680           1.030270           5.110480
    3    2         5.600000       -47.4083           0.847233           0.847233           5.173339
    5    4        17.600000      -168.5800           0.749740           0.749740           4.051222
    1    0         0.750000        -7.6499           0.705284           0.705284           5.366593
 

  Adding cutoff potential to free-atom effective potential.
  Creating atomic-like basis functions for current effective potential.

  Species O                   :

  List of atomic basis orbitals and eigenvalues:
    n    l      energy [Ha]    energy [eV]    outer radius [A]
    1    0       -18.898576      -514.2564       1.415765
    2    0        -0.878795       -23.9132       5.048385
    2    1        -0.332075        -9.0362       5.301386

  Assembling full basis from fixed parts.
  | Species O :   atomic orbital   1 s accepted.
  | Species O :   atomic orbital   2 s accepted.
  | Species O :    hydro orbital   3 s accepted.
  | Species O :    hydro orbital   1 s accepted.
  | Species O :   atomic orbital   2 p accepted.
  | Species O :    hydro orbital   2 p accepted.
  | Species O :    hydro orbital   3 p accepted.
  | Species O :    hydro orbital   3 d accepted.
  | Species O :    hydro orbital   3 d accepted.
  | Species O :    hydro orbital   4 f accepted.
  | Species O :    hydro orbital   5 g accepted.
 
  Basis size parameters after reduction:
  | Total number of radial functions:       11
  | Total number of basis functions :       78
 
  Testing on-site integration grid accuracy.
  |  Species  Function  <phi|h_atom|phi> (log., in eV)  <phi|h_atom|phi> (rad., in eV)
           1        1               -514.2564144315               -514.2564099626
           1        2                -23.9132357102                -23.9132356433
           1        3                 17.5398579759                 17.5398338425
           1        4                 14.5207278950                 14.5207740449
           1        5                 -9.0362392718                 -9.0362394845
           1        6                  7.9056275927                  7.9056237490
           1        7                 33.4201658992                 33.4201612015
           1        8                 45.8231952720                 45.8231953152
           1        9                 52.1937595491                 52.1937593440
           1       10                 85.4062894308                 85.4062894578
           1       11                142.0975701139                142.0975701391

  Preparing densities etc. for the partition functions (integrals / Hartree potential).

  Preparations completed.
  max(cpu_time)          :      0.148 s.
  Wall clock time (cpu1) :      0.164 s.
------------------------------------------------------------

------------------------------------------------------------
          Begin self-consistency loop: Initialization.

          Date     :  20190722, Time     :  144517.245
------------------------------------------------------------

  Initializing index lists of integration centers etc. from given atomic structure:
  | Number of centers in hartree potential         :         2
  | Number of centers in hartree multipole         :         2
  | Number of centers in electron density summation:         2
  | Number of centers in basis integrals           :         2
  | Number of centers in integrals                 :         2
  | Number of centers in hamiltonian               :         2
  Partitioning the integration grid into batches with parallel hashing+maxmin method.
  | Number of batches:      746
  | Maximal batch size:     112
  | Minimal batch size:      49
  | Average batch size:      71.394
  | Standard deviation of batch sizes:      21.536

  Integration load balanced across     4 MPI tasks.
  Work distribution over tasks is as follows:
  Task     0 has      13380 integration points.
  Task     1 has      13301 integration points.
  Task     2 has      13300 integration points.
  Task     3 has      13279 integration points.
  Initializing partition tables, free-atom densities, potentials, etc. across the integration grid (initialize_grid_storage).
  | initialize_grid_storage: Actual outermost partition radius vs. multipole_radius_free
  | (-- VB: in principle, multipole_radius_free should be larger, hence this output)
  | Species        1: Confinement radius =              6.000000000000000 AA, multipole_radius_free =              6.064445521808699 AA.
  | Species        1: outer_partition_radius set to              6.064445521808699 AA .
  | Original list of interatomic distances with           2 x          2 entries is created.
  | Net number of integration points:    53260
  | of which are non-zero points    :    50010
  Obtaining max. number of non-zero basis functions in each batch (get_n_compute_maxes).
  | Maximal number of non-zero basis functions:       78 in task     0
  | Maximal number of non-zero basis functions:       78 in task     1
  | Maximal number of non-zero basis functions:       78 in task     2
  | Maximal number of non-zero basis functions:       78 in task     3
  Selecting the method for density update.
  Loop over occupied states selected for charge density update.
  Integrating Hamiltonian matrix: batch-based integration.
  Time summed over all CPUs for integration: real work        0.170 s, elapsed        0.171 s
  Integrating overlap matrix.
  Time summed over all CPUs for integration: real work        0.062 s, elapsed        0.064 s

  Reading cluster restart information from file restart
  Writing Kohn-Sham eigenvalues.

  State    Occupation    Eigenvalue [Ha]    Eigenvalue [eV]
      1       2.00000         -18.890116         -514.02622
      2       2.00000         -18.889903         -514.02042
      3       2.00000          -1.264962          -34.42137
      4       2.00000          -0.702169          -19.10699
      5       2.00000          -0.501484          -13.64608
      6       2.00000          -0.501484          -13.64608
      7       2.00000          -0.494530          -13.45685
      8       1.00000          -0.187742           -5.10873
      9       1.00000          -0.187742           -5.10873
     10       0.00000           0.098767            2.68759
     11       0.00000           0.105011            2.85750
     12       0.00000           0.133245            3.62577
     13       0.00000           0.000000            0.00000
     14       0.00000           0.000000            0.00000

  Highest occupied state (VBM) at     -5.10872876 eV
  | Occupation number:      1.00000063

  Lowest unoccupied state (CBM) at    -5.10872875 eV
  | Occupation number:      0.99999937

  Overall HOMO-LUMO gap:      0.00000001 eV.
*** get_ev_sum_p0 expected pure occ_numbers
*** sum(occ_numbers) =  1.6000000000000085E+01 instead of  1.5000000000000000E+01
  Calculating total energy contributions from superposition of free atom densities.
*** get_entropy_correction expected pure occ_numbers
*** sum(occ_numbers) =  1.6000000000000085E+01 instead of  1.5000000000000000E+01
*** get_penalty_energy expected pure occ_numbers
*** sum(occ_numbers) =  1.6000000000000085E+01 instead of  1.5000000000000000E+01

  Total energy components:
  | Sum of eigenvalues            :         -82.86478256 Ha       -2254.86545978 eV
  | XC energy correction          :         -16.81893164 Ha        -457.66641563 eV
  | XC potential correction       :          21.62474860 Ha         588.43934876 eV
  | Free-atom electrostatic energy:         -71.52330919 Ha       -1946.24826722 eV
  | Hartree energy correction     :           0.00000000 Ha           0.00000000 eV
  | Entropy correction            :          -0.00020734 Ha          -0.00564190 eV
  | ---------------------------
  | Total energy                  :        -149.58227480 Ha       -4070.34079387 eV
  | Total energy, T -> 0          :        -149.58248213 Ha       -4070.34643576 eV  <-- do not rely on this value for anything but (periodic) metals
  | Electronic free energy        :        -149.58268947 Ha       -4070.35207766 eV

  Derived energy quantities:
  | Kinetic energy                :         150.54623344 Ha        4096.57144316 eV
  | Electrostatic energy          :        -283.30957660 Ha       -7709.24582139 eV
  | Energy correction for multipole
  | error in Hartree potential    :           0.00000000 Ha           0.00000000 eV
  | Sum of eigenvalues per atom                           :       -1127.43272989 eV
  | Total energy (T->0) per atom                          :       -2035.17321788 eV  <-- do not rely on this value for anything but (periodic) metals
  | Electronic free energy per atom                       :       -2035.17603883 eV
  Initialize hartree_potential_storage
  Max. number of atoms included in rho_multipole:            2

  End scf initialization - timings             :  max(cpu_time)    wall_clock(cpu1)
  | Time for scf. initialization               :        0.127 s           0.126 s
  | Boundary condition initialization          :        0.000 s           0.001 s
  | Integration                                :        0.060 s           0.059 s
  | Solution of K.-S. eqns.                    :        0.001 s           0.002 s
  | Grid partitioning                          :        0.023 s           0.023 s
  | Preloading free-atom quantities on grid    :        0.017 s           0.018 s
  | Free-atom superposition energy             :        0.009 s           0.008 s
  | Total energy evaluation                    :        0.000 s           0.003 s
------------------------------------------------------------

------------------------------------------------------------
          Initial SCF-cycle to compute last known
          density from restart information.

  Date     :  20190722, Time     :  144517.373
------------------------------------------------------------
*** scf_solver:charge expected kweighted occ_numbers
*** sum(occ_numbers) =  1.6000000000000085E+01 instead of  1.5000000000000000E+01
  Evaluating new KS density.
*** update_density_and_forces_p2 expected kweighted occ_numbers
*** sum(occ_numbers) =  1.6000000000000085E+01 instead of  1.5000000000000000E+01
  Integration grid: deviation in total charge (<rho> - N_e) =   1.000000E+00

  Evaluating partitioned Hartree potential by multipole expansion.
  | Analytical far-field extrapolation by fixed multipoles:
  | Hartree multipole sum: apparent total charge =  -0.105741E-06
  Summing up the Hartree potential.
  Time summed over all CPUs for potential: real work        0.100 s, elapsed        0.103 s
  | RMS charge density error from multipole expansion :   0.641540E-03

  Integrating Hamiltonian matrix: batch-based integration.
  Time summed over all CPUs for integration: real work        0.168 s, elapsed        0.174 s

  Updating Kohn-Sham eigenvalues, eigenvectors, occupation numbers, and Fermi level.
  Solving generalized eigenproblem
  Updating Kohn-Sham eigenvalues and eigenfunctions.
  Transforming overlap matrix and checking for singularities.
  Overlap matrix is nonsingular:
  | Lowest eigenvalue:  0.187908E-03
  Solving real generalised eigenvalue problem by standard LAPACK (fast)
  Determining occupation numbers for Kohn-Sham eigenstates.
  | Chemical potential (Fermi level) in eV                 : -.51134997E+01
  | Error in electron count due to remaining E_F inaccuracy: -.60409810E-09
  | Maximum occupation number of highest empty state:  0.00E+00

  Highest occupied state (VBM) at    -13.45685416 eV
  | Occupation number:      2.00000000

  Lowest unoccupied state (CBM) at    -5.10873068 eV
  | Occupation number:      0.50003071

  Overall HOMO-LUMO gap:      8.34812348 eV.

  Total energy components:
  | Sum of eigenvalues            :         -82.67704132 Ha       -2249.75676067 eV
  | XC energy correction          :         -16.91326489 Ha        -460.23335396 eV
  | XC potential correction       :          21.74738712 Ha         591.77651273 eV
  | Free-atom electrostatic energy:         -71.52330919 Ha       -1946.24826722 eV
  | Hartree energy correction     :          -0.64804648 Ha         -17.63424195 eV
  | Entropy correction            :          -0.00016515 Ha          -0.00449404 eV
  | ---------------------------
  | Total energy                  :        -150.01427476 Ha       -4082.09611107 eV
  | Total energy, T -> 0          :        -150.01443992 Ha       -4082.10060511 eV  <-- do not rely on this value for anything but (periodic) metals
  | Electronic free energy        :        -150.01460507 Ha       -4082.10509915 eV

  Derived energy quantities:
  | Kinetic energy                :         150.38318678 Ha        4092.13471771 eV
  | Electrostatic energy          :        -283.48419665 Ha       -7713.99747482 eV
  | Energy correction for multipole
  | error in Hartree potential    :          -0.00058630 Ha          -0.01595412 eV
  | Sum of eigenvalues per atom                           :       -1124.87838033 eV
  | Total energy (T->0) per atom                          :       -2041.05030256 eV  <-- do not rely on this value for anything but (periodic) metals
  | Electronic free energy per atom                       :       -2041.05254958 eV

  Self-consistency convergence accuracy:
  | Change of charge density      :  0.1358E+00
  | Change of sum of eigenvalues  :  0.5109E+01 eV
  | Change of total energy        : -0.1176E+02 eV

  End self-consistency iteration #     0       :  max(cpu_time)    wall_clock(cpu1)
  | Time for this iteration                    :        0.121 s           0.120 s
  | Charge density update                      :        0.034 s           0.033 s
  | Density mixing                             :        0.000 s           0.000 s
  | Hartree multipole update                   :        0.005 s           0.004 s
  | Hartree multipole summation                :        0.027 s           0.027 s
  | Integration                                :        0.044 s           0.044 s
  | Solution of K.-S. eqns.                    :        0.008 s           0.009 s
  | Total energy evaluation                    :        0.001 s           0.001 s
------------------------------------------------------------

------------------------------------------------------------
          Begin self-consistency iteration #    1

  Date     :  20190722, Time     :  144517.494
------------------------------------------------------------
  Evaluating new KS density.
  Integration grid: deviation in total charge (<rho> - N_e) =  -6.041514E-10
  Pulay mixing of updated and previous charge densities.

  Evaluating partitioned Hartree potential by multipole expansion.
  | Analytical far-field extrapolation by fixed multipoles:
  | Hartree multipole sum: apparent total charge =   0.200000E+00
  Summing up the Hartree potential.
  Time summed over all CPUs for potential: real work        0.098 s, elapsed        0.101 s
  | RMS charge density error from multipole expansion :   0.565000E-03

  Integrating Hamiltonian matrix: batch-based integration.
  Time summed over all CPUs for integration: real work        0.167 s, elapsed        0.170 s

  Updating Kohn-Sham eigenvalues, eigenvectors, occupation numbers, and Fermi level.
  Solving generalized eigenproblem
  Updating Kohn-Sham eigenvalues and eigenfunctions.
  Solving real generalised eigenvalue problem by standard LAPACK (fast)
  Determining occupation numbers for Kohn-Sham eigenstates.
  | Chemical potential (Fermi level) in eV                 : -.81945809E+01
  | Error in electron count due to remaining E_F inaccuracy: -.22282460E-08
  | Maximum occupation number of highest empty state:  0.00E+00

  Writing Kohn-Sham eigenvalues.

  State    Occupation    Eigenvalue [Ha]    Eigenvalue [eV]
      1       2.00000         -19.044923         -518.23873
      2       2.00000         -19.044711         -518.23296
      3       2.00000          -1.389020          -37.79715
      4       2.00000          -0.813688          -22.14157
      5       2.00000          -0.615386          -16.74550
      6       2.00000          -0.615386          -16.74550
      7       2.00000          -0.605900          -16.48737
      8       0.50027          -0.300970           -8.18981
      9       0.49973          -0.300970           -8.18981
     10       0.00000           0.042824            1.16530
     11       0.00000           0.049510            1.34724
     12       0.00000           0.078302            2.13071
     13       0.00000           0.078302            2.13071
     14       0.00000           0.157571            4.28773

  Highest occupied state (VBM) at    -16.48736873 eV
  | Occupation number:      2.00000000

  Lowest unoccupied state (CBM) at    -8.18981453 eV
  | Occupation number:      0.50027344

  Overall HOMO-LUMO gap:      8.29755420 eV.

  Total energy components:
  | Sum of eigenvalues            :         -84.55899693 Ha       -2300.96737846 eV
  | XC energy correction          :         -16.76082688 Ha        -456.08530489 eV
  | XC potential correction       :          21.54777006 Ha         586.34465628 eV
  | Free-atom electrostatic energy:         -71.52330919 Ha       -1946.24826722 eV
  | Hartree energy correction     :           1.37746235 Ha          37.48265770 eV
  | Entropy correction            :          -0.00016515 Ha          -0.00449404 eV
  | ---------------------------
  | Total energy                  :        -149.91790060 Ha       -4079.47363658 eV
  | Total energy, T -> 0          :        -149.91806575 Ha       -4079.47813062 eV  <-- do not rely on this value for anything but (periodic) metals
  | Electronic free energy        :        -149.91823090 Ha       -4079.48262466 eV

  Derived energy quantities:
  | Kinetic energy                :         149.83027176 Ha        4077.08913450 eV
  | Electrostatic energy          :        -282.98734547 Ha       -7700.47746620 eV
  | Energy correction for multipole
  | error in Hartree potential    :          -0.00047101 Ha          -0.01281671 eV
  | Sum of eigenvalues per atom                           :       -1150.48368923 eV
  | Total energy (T->0) per atom                          :       -2039.73906531 eV  <-- do not rely on this value for anything but (periodic) metals
  | Electronic free energy per atom                       :       -2039.74131233 eV

  Self-consistency convergence accuracy:
  | Change of charge density      :  0.2168E+00
  | Change of sum of eigenvalues  : -0.5121E+02 eV
  | Change of total energy        :  0.2622E+01 eV

  End self-consistency iteration #     1       :  max(cpu_time)    wall_clock(cpu1)
  | Time for this iteration                    :        0.109 s           0.109 s
  | Charge density update                      :        0.032 s           0.032 s
  | Density mixing                             :        0.001 s           0.001 s
  | Hartree multipole update                   :        0.004 s           0.004 s
  | Hartree multipole summation                :        0.027 s           0.026 s
  | Integration                                :        0.043 s           0.043 s
  | Solution of K.-S. eqns.                    :        0.001 s           0.001 s
  | Total energy evaluation                    :        0.000 s           0.001 s
------------------------------------------------------------

------------------------------------------------------------
          Begin self-consistency iteration #    2

  Date     :  20190722, Time     :  144517.604
------------------------------------------------------------
  Evaluating new KS density.
  Integration grid: deviation in total charge (<rho> - N_e) =  -2.228315E-09
  Pulay mixing of updated and previous charge densities.

  Evaluating partitioned Hartree potential by multipole expansion.
  | Analytical far-field extrapolation by fixed multipoles:
  | Hartree multipole sum: apparent total charge =   0.551838E+00
  Summing up the Hartree potential.
  Time summed over all CPUs for potential: real work        0.096 s, elapsed        0.097 s
  | RMS charge density error from multipole expansion :   0.496622E-03

  Integrating Hamiltonian matrix: batch-based integration.
  Time summed over all CPUs for integration: real work        0.166 s, elapsed        0.167 s

  Updating Kohn-Sham eigenvalues, eigenvectors, occupation numbers, and Fermi level.
  Solving generalized eigenproblem
  Updating Kohn-Sham eigenvalues and eigenfunctions.
  Solving real generalised eigenvalue problem by standard LAPACK (fast)
  Determining occupation numbers for Kohn-Sham eigenstates.
  | Chemical potential (Fermi level) in eV                 : -.13115795E+02
  | Error in electron count due to remaining E_F inaccuracy: 0.23092639E-13
  | Maximum occupation number of highest empty state:  0.00E+00

  Highest occupied state (VBM) at    -21.30662320 eV
  | Occupation number:      2.00000000

  Lowest unoccupied state (CBM) at   -13.11108891 eV
  | Occupation number:      0.50567843

  Overall HOMO-LUMO gap:      8.19553430 eV.

  Total energy components:
  | Sum of eigenvalues            :         -87.46851382 Ha       -2380.13936128 eV
  | XC energy correction          :         -16.54641124 Ha        -450.25075822 eV
  | XC potential correction       :          21.26696454 Ha         578.70354921 eV
  | Free-atom electrostatic energy:         -71.52330919 Ha       -1946.24826722 eV
  | Hartree energy correction     :           4.44645228 Ha         120.99412279 eV
  | Entropy correction            :          -0.00016515 Ha          -0.00449386 eV
  | ---------------------------
  | Total energy                  :        -149.82481743 Ha       -4076.94071472 eV
  | Total energy, T -> 0          :        -149.82498258 Ha       -4076.94520858 eV  <-- do not rely on this value for anything but (periodic) metals
  | Electronic free energy        :        -149.82514772 Ha       -4076.94970244 eV

  Derived energy quantities:
  | Kinetic energy                :         149.13534583 Ha        4058.17923800 eV
  | Electrostatic energy          :        -282.41375203 Ha       -7684.86919450 eV
  | Energy correction for multipole
  | error in Hartree potential    :          -0.00036521 Ha          -0.00993785 eV
  | Sum of eigenvalues per atom                           :       -1190.06968064 eV
  | Total energy (T->0) per atom                          :       -2038.47260429 eV  <-- do not rely on this value for anything but (periodic) metals
  | Electronic free energy per atom                       :       -2038.47485122 eV

  Self-consistency convergence accuracy:
  | Change of charge density      :  0.1326E+00
  | Change of sum of eigenvalues  : -0.7917E+02 eV
  | Change of total energy        :  0.2533E+01 eV

  End self-consistency iteration #     2       :  max(cpu_time)    wall_clock(cpu1)
  | Time for this iteration                    :        0.105 s           0.105 s
  | Charge density update                      :        0.030 s           0.029 s
  | Density mixing                             :        0.001 s           0.002 s
  | Hartree multipole update                   :        0.005 s           0.004 s
  | Hartree multipole summation                :        0.026 s           0.025 s
  | Integration                                :        0.043 s           0.043 s
  | Solution of K.-S. eqns.                    :        0.001 s           0.001 s
  | Total energy evaluation                    :        0.000 s           0.001 s
------------------------------------------------------------

------------------------------------------------------------
          Begin self-consistency iteration #    3

  Date     :  20190722, Time     :  144517.710
------------------------------------------------------------
  Evaluating new KS density.
  Integration grid: deviation in total charge (<rho> - N_e) =  -1.065814E-14
  Pulay mixing of updated and previous charge densities.

  Evaluating partitioned Hartree potential by multipole expansion.
  | Analytical far-field extrapolation by fixed multipoles:
  | Hartree multipole sum: apparent total charge =   0.101464E+01
  Summing up the Hartree potential.
  Time summed over all CPUs for potential: real work        0.096 s, elapsed        0.097 s
  | RMS charge density error from multipole expansion :   0.481974E-03

  Integrating Hamiltonian matrix: batch-based integration.
  Time summed over all CPUs for integration: real work        0.166 s, elapsed        0.168 s

  Updating Kohn-Sham eigenvalues, eigenvectors, occupation numbers, and Fermi level.
  Solving generalized eigenproblem
  Updating Kohn-Sham eigenvalues and eigenfunctions.
  Solving real generalised eigenvalue problem by standard LAPACK (fast)
  Determining occupation numbers for Kohn-Sham eigenstates.
  | Chemical potential (Fermi level) in eV                 : -.17971741E+02
  | Error in electron count due to remaining E_F inaccuracy: 0.18304647E-09
  | Maximum occupation number of highest empty state:  0.00E+00

  Highest occupied state (VBM) at    -26.09152419 eV
  | Occupation number:      2.00000000

  Lowest unoccupied state (CBM) at   -17.96968751 eV
  | Occupation number:      0.77148000

  Overall HOMO-LUMO gap:      8.12183668 eV.

  Total energy components:
  | Sum of eigenvalues            :         -90.10930273 Ha       -2451.99888351 eV
  | XC energy correction          :         -16.41760670 Ha        -446.74580856 eV
  | XC potential correction       :          21.09818022 Ha         574.11069418 eV
  | Free-atom electrostatic energy:         -71.52330919 Ha       -1946.24826722 eV
  | Hartree energy correction     :           7.15836516 Ha         194.78902669 eV
  | Entropy correction            :          -0.00014959 Ha          -0.00407066 eV
  | ---------------------------
  | Total energy                  :        -149.79367325 Ha       -4076.09323841 eV
  | Total energy, T -> 0          :        -149.79382284 Ha       -4076.09730908 eV  <-- do not rely on this value for anything but (periodic) metals
  | Electronic free energy        :        -149.79397244 Ha       -4076.10137974 eV

  Derived energy quantities:
  | Kinetic energy                :         149.26151090 Ha        4061.61236414 eV
  | Electrostatic energy          :        -282.63757744 Ha       -7690.95979400 eV
  | Energy correction for multipole
  | error in Hartree potential    :          -0.00051667 Ha          -0.01405930 eV
  | Sum of eigenvalues per atom                           :       -1225.99944176 eV
  | Total energy (T->0) per atom                          :       -2038.04865454 eV  <-- do not rely on this value for anything but (periodic) metals
  | Electronic free energy per atom                       :       -2038.05068987 eV

  Self-consistency convergence accuracy:
  | Change of charge density      :  0.5890E-01
  | Change of sum of eigenvalues  : -0.7186E+02 eV
  | Change of total energy        :  0.8475E+00 eV

  End self-consistency iteration #     3       :  max(cpu_time)    wall_clock(cpu1)
  | Time for this iteration                    :        0.105 s           0.105 s
  | Charge density update                      :        0.030 s           0.030 s
  | Density mixing                             :        0.002 s           0.002 s
  | Hartree multipole update                   :        0.004 s           0.003 s
  | Hartree multipole summation                :        0.026 s           0.025 s
  | Integration                                :        0.043 s           0.042 s
  | Solution of K.-S. eqns.                    :        0.001 s           0.002 s
  | Total energy evaluation                    :        0.000 s           0.001 s
------------------------------------------------------------

------------------------------------------------------------
          Begin self-consistency iteration #    4

  Date     :  20190722, Time     :  144517.816
------------------------------------------------------------
  Evaluating new KS density.
  Integration grid: deviation in total charge (<rho> - N_e) =   1.831442E-10
  Pulay mixing of updated and previous charge densities.

  Evaluating partitioned Hartree potential by multipole expansion.
  | Analytical far-field extrapolation by fixed multipoles:
  | Hartree multipole sum: apparent total charge =   0.102352E+01
  Summing up the Hartree potential.
  Time summed over all CPUs for potential: real work        0.099 s, elapsed        0.106 s
  | RMS charge density error from multipole expansion :   0.482622E-03

  Integrating Hamiltonian matrix: batch-based integration.
  Time summed over all CPUs for integration: real work        0.165 s, elapsed        0.166 s

  Updating Kohn-Sham eigenvalues, eigenvectors, occupation numbers, and Fermi level.
  Solving generalized eigenproblem
  Updating Kohn-Sham eigenvalues and eigenfunctions.
  Solving real generalised eigenvalue problem by standard LAPACK (fast)
  Determining occupation numbers for Kohn-Sham eigenstates.
  | Chemical potential (Fermi level) in eV                 : -.18033827E+02
  | Error in electron count due to remaining E_F inaccuracy: 0.17799096E-11
  | Maximum occupation number of highest empty state:  0.00E+00

  Highest occupied state (VBM) at    -26.15414595 eV
  | Occupation number:      2.00000000

  Lowest unoccupied state (CBM) at   -18.02920263 eV
  | Occupation number:      0.51314772

  Overall HOMO-LUMO gap:      8.12494332 eV.

  Total energy components:
  | Sum of eigenvalues            :         -90.13834366 Ha       -2452.78912740 eV
  | XC energy correction          :         -16.41791437 Ha        -446.75418070 eV
  | XC potential correction       :          21.09858637 Ha         574.12174621 eV
  | Free-atom electrostatic energy:         -71.52330919 Ha       -1946.24826722 eV
  | Hartree energy correction     :           7.18734210 Ha         195.57752933 eV
  | Entropy correction            :          -0.00016512 Ha          -0.00449308 eV
  | ---------------------------
  | Total energy                  :        -149.79363875 Ha       -4076.09229977 eV
  | Total energy, T -> 0          :        -149.79380387 Ha       -4076.09679285 eV  <-- do not rely on this value for anything but (periodic) metals
  | Electronic free energy        :        -149.79396899 Ha       -4076.10128592 eV

  Derived energy quantities:
  | Kinetic energy                :         149.28357355 Ha        4062.21271932 eV
  | Electrostatic energy          :        -282.65929793 Ha       -7691.55083839 eV
  | Energy correction for multipole
  | error in Hartree potential    :          -0.00052420 Ha          -0.01426410 eV
  | Sum of eigenvalues per atom                           :       -1226.39456370 eV
  | Total energy (T->0) per atom                          :       -2038.04839642 eV  <-- do not rely on this value for anything but (periodic) metals
  | Electronic free energy per atom                       :       -2038.05064296 eV

  Self-consistency convergence accuracy:
  | Change of charge density      :  0.9710E-01
  | Change of sum of eigenvalues  : -0.7902E+00 eV
  | Change of total energy        :  0.9386E-03 eV

  End self-consistency iteration #     4       :  max(cpu_time)    wall_clock(cpu1)
  | Time for this iteration                    :        0.108 s           0.108 s
  | Charge density update                      :        0.031 s           0.031 s
  | Density mixing                             :        0.002 s           0.002 s
  | Hartree multipole update                   :        0.005 s           0.004 s
  | Hartree multipole summation                :        0.027 s           0.027 s
  | Integration                                :        0.042 s           0.042 s
  | Solution of K.-S. eqns.                    :        0.001 s           0.001 s
  | Total energy evaluation                    :        0.000 s           0.001 s
------------------------------------------------------------

------------------------------------------------------------
          Begin self-consistency iteration #    5

  Date     :  20190722, Time     :  144517.925
------------------------------------------------------------
  Evaluating new KS density.
  Integration grid: deviation in total charge (<rho> - N_e) =   1.772804E-12
  Pulay mixing of updated and previous charge densities.

  Evaluating partitioned Hartree potential by multipole expansion.
  | Analytical far-field extrapolation by fixed multipoles:
  | Hartree multipole sum: apparent total charge =   0.993575E+00
  Summing up the Hartree potential.
  Time summed over all CPUs for potential: real work        0.108 s, elapsed        0.117 s
  | RMS charge density error from multipole expansion :   0.479814E-03

  Integrating Hamiltonian matrix: batch-based integration.
  Time summed over all CPUs for integration: real work        0.171 s, elapsed        0.176 s

  Updating Kohn-Sham eigenvalues, eigenvectors, occupation numbers, and Fermi level.
  Solving generalized eigenproblem
  Updating Kohn-Sham eigenvalues and eigenfunctions.
  Solving real generalised eigenvalue problem by standard LAPACK (fast)
  Determining occupation numbers for Kohn-Sham eigenstates.
  | Chemical potential (Fermi level) in eV                 : -.17506622E+02
  | Error in electron count due to remaining E_F inaccuracy: -.45332627E-11
  | Maximum occupation number of highest empty state:  0.00E+00

  Highest occupied state (VBM) at    -25.64111562 eV
  | Occupation number:      2.00000000

  Lowest unoccupied state (CBM) at   -17.50186660 eV
  | Occupation number:      0.50127527

  Overall HOMO-LUMO gap:      8.13924902 eV.

  Total energy components:
  | Sum of eigenvalues            :         -89.81729716 Ha       -2444.05300775 eV
  | XC energy correction          :         -16.44488544 Ha        -447.48810068 eV
  | XC potential correction       :          21.13390843 Ha         575.08290814 eV
  | Free-atom electrostatic energy:         -71.52330919 Ha       -1946.24826722 eV
  | Hartree energy correction     :           6.85849123 Ha         186.62904198 eV
  | Entropy correction            :          -0.00016515 Ha          -0.00449403 eV
  | ---------------------------
  | Total energy                  :        -149.79309213 Ha       -4076.07742552 eV
  | Total energy, T -> 0          :        -149.79325729 Ha       -4076.08191955 eV  <-- do not rely on this value for anything but (periodic) metals
  | Electronic free energy        :        -149.79342244 Ha       -4076.08641358 eV

  Derived energy quantities:
  | Kinetic energy                :         149.42499492 Ha        4066.06099075 eV
  | Electrostatic energy          :        -282.77320162 Ha       -7694.65031559 eV
  | Energy correction for multipole
  | error in Hartree potential    :          -0.00054636 Ha          -0.01486727 eV
  | Sum of eigenvalues per atom                           :       -1222.02650388 eV
  | Total energy (T->0) per atom                          :       -2038.04095978 eV  <-- do not rely on this value for anything but (periodic) metals
  | Electronic free energy per atom                       :       -2038.04320679 eV

  Self-consistency convergence accuracy:
  | Change of charge density      :  0.2232E-01
  | Change of sum of eigenvalues  :  0.8736E+01 eV
  | Change of total energy        :  0.1487E-01 eV

  End self-consistency iteration #     5       :  max(cpu_time)    wall_clock(cpu1)
  | Time for this iteration                    :        0.121 s           0.121 s
  | Charge density update                      :        0.030 s           0.029 s
  | Density mixing                             :        0.002 s           0.003 s
  | Hartree multipole update                   :        0.004 s           0.003 s
  | Hartree multipole summation                :        0.032 s           0.033 s
  | Integration                                :        0.045 s           0.045 s
  | Solution of K.-S. eqns.                    :        0.006 s           0.006 s
  | Total energy evaluation                    :        0.001 s           0.001 s
------------------------------------------------------------

------------------------------------------------------------
          Begin self-consistency iteration #    6

  Date     :  20190722, Time     :  144518.049
------------------------------------------------------------
  Evaluating new KS density.
  Integration grid: deviation in total charge (<rho> - N_e) =  -4.547474E-12
  Pulay mixing of updated and previous charge densities.

  Evaluating partitioned Hartree potential by multipole expansion.
  | Analytical far-field extrapolation by fixed multipoles:
  | Hartree multipole sum: apparent total charge =   0.999203E+00
  Summing up the Hartree potential.
  Time summed over all CPUs for potential: real work        0.097 s, elapsed        0.097 s
  | RMS charge density error from multipole expansion :   0.491150E-03

  Integrating Hamiltonian matrix: batch-based integration.
  Time summed over all CPUs for integration: real work        0.165 s, elapsed        0.166 s

  Updating Kohn-Sham eigenvalues, eigenvectors, occupation numbers, and Fermi level.
  Solving generalized eigenproblem
  Updating Kohn-Sham eigenvalues and eigenfunctions.
  Solving real generalised eigenvalue problem by standard LAPACK (fast)
  Determining occupation numbers for Kohn-Sham eigenstates.
  | Chemical potential (Fermi level) in eV                 : -.17469871E+02
  | Error in electron count due to remaining E_F inaccuracy: -.14173551E-10
  | Maximum occupation number of highest empty state:  0.00E+00

  Highest occupied state (VBM) at    -25.60381366 eV
  | Occupation number:      2.00000000

  Lowest unoccupied state (CBM) at   -17.46513126 eV
  | Occupation number:      0.50263579

  Overall HOMO-LUMO gap:      8.13868239 eV.

  Total energy components:
  | Sum of eigenvalues            :         -89.79192451 Ha       -2443.36258291 eV
  | XC energy correction          :         -16.45028620 Ha        -447.63506305 eV
  | XC potential correction       :          21.14108889 Ha         575.27829848 eV
  | Free-atom electrostatic energy:         -71.52330919 Ha       -1946.24826722 eV
  | Hartree energy correction     :           6.83136192 Ha         185.89081599 eV
  | Entropy correction            :          -0.00016515 Ha          -0.00449400 eV
  | ---------------------------
  | Total energy                  :        -149.79306910 Ha       -4076.07679870 eV
  | Total energy, T -> 0          :        -149.79323425 Ha       -4076.08129270 eV  <-- do not rely on this value for anything but (periodic) metals
  | Electronic free energy        :        -149.79339940 Ha       -4076.08578670 eV

  Derived energy quantities:
  | Kinetic energy                :         149.44471647 Ha        4066.59764144 eV
  | Electrostatic energy          :        -282.78749937 Ha       -7695.03937709 eV
  | Energy correction for multipole
  | error in Hartree potential    :          -0.00053838 Ha          -0.01464999 eV
  | Sum of eigenvalues per atom                           :       -1221.68129145 eV
  | Total energy (T->0) per atom                          :       -2038.04064635 eV  <-- do not rely on this value for anything but (periodic) metals
  | Electronic free energy per atom                       :       -2038.04289335 eV

  Self-consistency convergence accuracy:
  | Change of charge density      :  0.6642E-02
  | Change of sum of eigenvalues  :  0.6904E+00 eV
  | Change of total energy        :  0.6268E-03 eV

  End self-consistency iteration #     6       :  max(cpu_time)    wall_clock(cpu1)
  | Time for this iteration                    :        0.108 s           0.108 s
  | Charge density update                      :        0.031 s           0.031 s
  | Density mixing                             :        0.003 s           0.003 s
  | Hartree multipole update                   :        0.005 s           0.004 s
  | Hartree multipole summation                :        0.025 s           0.025 s
  | Integration                                :        0.042 s           0.041 s
  | Solution of K.-S. eqns.                    :        0.001 s           0.002 s
  | Total energy evaluation                    :        0.000 s           0.000 s
------------------------------------------------------------

------------------------------------------------------------
          Begin self-consistency iteration #    7

  Date     :  20190722, Time     :  144518.158
------------------------------------------------------------
  Evaluating new KS density.
  Integration grid: deviation in total charge (<rho> - N_e) =  -1.358735E-11
  Pulay mixing of updated and previous charge densities.

  Evaluating partitioned Hartree potential by multipole expansion.
  | Analytical far-field extrapolation by fixed multipoles:
  | Hartree multipole sum: apparent total charge =   0.999667E+00
  Summing up the Hartree potential.
  Time summed over all CPUs for potential: real work        0.098 s, elapsed        0.098 s
  | RMS charge density error from multipole expansion :   0.491849E-03

  Integrating Hamiltonian matrix: batch-based integration.
  Time summed over all CPUs for integration: real work        0.165 s, elapsed        0.166 s

  Updating Kohn-Sham eigenvalues, eigenvectors, occupation numbers, and Fermi level.
  Solving generalized eigenproblem
  Updating Kohn-Sham eigenvalues and eigenfunctions.
  Solving real generalised eigenvalue problem by standard LAPACK (fast)
  Determining occupation numbers for Kohn-Sham eigenstates.
  | Chemical potential (Fermi level) in eV                 : -.17471835E+02
  | Error in electron count due to remaining E_F inaccuracy: -.10302870E-11
  | Maximum occupation number of highest empty state:  0.00E+00

  Highest occupied state (VBM) at    -25.60721533 eV
  | Occupation number:      2.00000000

  Lowest unoccupied state (CBM) at   -17.46712799 eV
  | Occupation number:      0.50559891

  Overall HOMO-LUMO gap:      8.14008734 eV.

  Total energy components:
  | Sum of eigenvalues            :         -89.79327852 Ha       -2443.39942745 eV
  | XC energy correction          :         -16.45017775 Ha        -447.63211176 eV
  | XC potential correction       :          21.14095854 Ha         575.27475159 eV
  | Free-atom electrostatic energy:         -71.52330919 Ha       -1946.24826722 eV
  | Hartree energy correction     :           6.83273793 Ha         185.92825910 eV
  | Entropy correction            :          -0.00016515 Ha          -0.00449386 eV
  | ---------------------------
  | Total energy                  :        -149.79306899 Ha       -4076.07679574 eV
  | Total energy, T -> 0          :        -149.79323414 Ha       -4076.08128961 eV  <-- do not rely on this value for anything but (periodic) metals
  | Electronic free energy        :        -149.79339928 Ha       -4076.08578347 eV

  Derived energy quantities:
  | Kinetic energy                :         149.44207413 Ha        4066.52573973 eV
  | Electrostatic energy          :        -282.78496538 Ha       -7694.97042371 eV
  | Energy correction for multipole
  | error in Hartree potential    :          -0.00053687 Ha          -0.01460889 eV
  | Sum of eigenvalues per atom                           :       -1221.69971372 eV
  | Total energy (T->0) per atom                          :       -2038.04064480 eV  <-- do not rely on this value for anything but (periodic) metals
  | Electronic free energy per atom                       :       -2038.04289174 eV

  Self-consistency convergence accuracy:
  | Change of charge density      :  0.1108E-02
  | Change of sum of eigenvalues  : -0.3684E-01 eV
  | Change of total energy        :  0.2954E-05 eV

  End self-consistency iteration #     7       :  max(cpu_time)    wall_clock(cpu1)
  | Time for this iteration                    :        0.106 s           0.106 s
  | Charge density update                      :        0.030 s           0.030 s
  | Density mixing                             :        0.003 s           0.003 s
  | Hartree multipole update                   :        0.004 s           0.003 s
  | Hartree multipole summation                :        0.026 s           0.025 s
  | Integration                                :        0.043 s           0.042 s
  | Solution of K.-S. eqns.                    :        0.000 s           0.002 s
  | Total energy evaluation                    :        0.001 s           0.001 s
------------------------------------------------------------

------------------------------------------------------------
          Begin self-consistency iteration #    8

  Date     :  20190722, Time     :  144518.265
------------------------------------------------------------
  Evaluating new KS density.
  Integration grid: deviation in total charge (<rho> - N_e) =  -8.490986E-13
  Pulay mixing of updated and previous charge densities.

  Evaluating partitioned Hartree potential by multipole expansion.
  | Analytical far-field extrapolation by fixed multipoles:
  | Hartree multipole sum: apparent total charge =   0.100006E+01
  Summing up the Hartree potential.
  Time summed over all CPUs for potential: real work        0.097 s, elapsed        0.098 s
  | RMS charge density error from multipole expansion :   0.492693E-03

  Integrating Hamiltonian matrix: batch-based integration.
  Time summed over all CPUs for integration: real work        0.168 s, elapsed        0.170 s

  Updating Kohn-Sham eigenvalues, eigenvectors, occupation numbers, and Fermi level.
  Solving generalized eigenproblem
  Updating Kohn-Sham eigenvalues and eigenfunctions.
  Solving real generalised eigenvalue problem by standard LAPACK (fast)
  Determining occupation numbers for Kohn-Sham eigenstates.
  | Chemical potential (Fermi level) in eV                 : -.17465794E+02
  | Error in electron count due to remaining E_F inaccuracy: -.14432366E-09
  | Maximum occupation number of highest empty state:  0.00E+00

  Highest occupied state (VBM) at    -25.60187935 eV
  | Occupation number:      2.00000000

  Lowest unoccupied state (CBM) at   -17.46103563 eV
  | Occupation number:      0.50097234

  Overall HOMO-LUMO gap:      8.14084372 eV.

  Total energy components:
  | Sum of eigenvalues            :         -89.78915473 Ha       -2443.28721320 eV
  | XC energy correction          :         -16.45080217 Ha        -447.64910324 eV
  | XC potential correction       :          21.14178656 Ha         575.29728307 eV
  | Free-atom electrostatic energy:         -71.52330919 Ha       -1946.24826722 eV
  | Hartree energy correction     :           6.82841085 Ha         185.81051309 eV
  | Entropy correction            :          -0.00016515 Ha          -0.00449403 eV
  | ---------------------------
  | Total energy                  :        -149.79306869 Ha       -4076.07678750 eV
  | Total energy, T -> 0          :        -149.79323384 Ha       -4076.08128153 eV  <-- do not rely on this value for anything but (periodic) metals
  | Electronic free energy        :        -149.79339899 Ha       -4076.08577556 eV

  Derived energy quantities:
  | Kinetic energy                :         149.44488734 Ha        4066.60229088 eV
  | Electrostatic energy          :        -282.78715385 Ha       -7695.02997514 eV
  | Energy correction for multipole
  | error in Hartree potential    :          -0.00053647 Ha          -0.01459819 eV
  | Sum of eigenvalues per atom                           :       -1221.64360660 eV
  | Total energy (T->0) per atom                          :       -2038.04064076 eV  <-- do not rely on this value for anything but (periodic) metals
  | Electronic free energy per atom                       :       -2038.04288778 eV

  Self-consistency convergence accuracy:
  | Change of charge density      :  0.2014E-02
  | Change of sum of eigenvalues  :  0.1122E+00 eV
  | Change of total energy        :  0.8247E-05 eV

  End self-consistency iteration #     8       :  max(cpu_time)    wall_clock(cpu1)
  | Time for this iteration                    :        0.109 s           0.108 s
  | Charge density update                      :        0.030 s           0.030 s
  | Density mixing                             :        0.003 s           0.003 s
  | Hartree multipole update                   :        0.004 s           0.004 s
  | Hartree multipole summation                :        0.026 s           0.025 s
  | Integration                                :        0.043 s           0.043 s
  | Solution of K.-S. eqns.                    :        0.002 s           0.002 s
  | Total energy evaluation                    :        0.000 s           0.001 s
------------------------------------------------------------

------------------------------------------------------------
          Begin self-consistency iteration #    9

  Date     :  20190722, Time     :  144518.374
------------------------------------------------------------
  Evaluating new KS density.
  Integration grid: deviation in total charge (<rho> - N_e) =  -1.444889E-10
  Pulay mixing of updated and previous charge densities.

  Evaluating partitioned Hartree potential by multipole expansion.
  | Analytical far-field extrapolation by fixed multipoles:
  | Hartree multipole sum: apparent total charge =   0.100006E+01
  Summing up the Hartree potential.
  Time summed over all CPUs for potential: real work        0.096 s, elapsed        0.097 s
  | RMS charge density error from multipole expansion :   0.492698E-03

  Integrating Hamiltonian matrix: batch-based integration.
  Time summed over all CPUs for integration: real work        0.165 s, elapsed        0.166 s

  Updating Kohn-Sham eigenvalues, eigenvectors, occupation numbers, and Fermi level.
  Solving generalized eigenproblem
  Updating Kohn-Sham eigenvalues and eigenfunctions.
  Solving real generalised eigenvalue problem by standard LAPACK (fast)
  Determining occupation numbers for Kohn-Sham eigenstates.
  | Chemical potential (Fermi level) in eV                 : -.17465725E+02
  | Error in electron count due to remaining E_F inaccuracy: -.14992096E-09
  | Maximum occupation number of highest empty state:  0.00E+00

  Highest occupied state (VBM) at    -25.60181347 eV
  | Occupation number:      2.00000000

  Lowest unoccupied state (CBM) at   -17.46096477 eV
  | Occupation number:      0.50079693

  Overall HOMO-LUMO gap:      8.14084870 eV.

  Total energy components:
  | Sum of eigenvalues            :         -89.78911181 Ha       -2443.28604543 eV
  | XC energy correction          :         -16.45080707 Ha        -447.64923661 eV
  | XC potential correction       :          21.14179305 Ha         575.29745961 eV
  | Free-atom electrostatic energy:         -71.52330919 Ha       -1946.24826722 eV
  | Hartree energy correction     :           6.82836635 Ha         185.80930217 eV
  | Entropy correction            :          -0.00016515 Ha          -0.00449404 eV
  | ---------------------------
  | Total energy                  :        -149.79306869 Ha       -4076.07678748 eV
  | Total energy, T -> 0          :        -149.79323384 Ha       -4076.08128151 eV  <-- do not rely on this value for anything but (periodic) metals
  | Electronic free energy        :        -149.79339899 Ha       -4076.08577555 eV

  Derived energy quantities:
  | Kinetic energy                :         149.44490626 Ha        4066.60280579 eV
  | Electrostatic energy          :        -282.78716787 Ha       -7695.03035665 eV
  | Energy correction for multipole
  | error in Hartree potential    :          -0.00053647 Ha          -0.01459808 eV
  | Sum of eigenvalues per atom                           :       -1221.64302272 eV
  | Total energy (T->0) per atom                          :       -2038.04064076 eV  <-- do not rely on this value for anything but (periodic) metals
  | Electronic free energy per atom                       :       -2038.04288777 eV

  Self-consistency convergence accuracy:
  | Change of charge density      :  0.3412E-03
  | Change of sum of eigenvalues  :  0.1168E-02 eV
  | Change of total energy        :  0.2032E-07 eV

  End self-consistency iteration #     9       :  max(cpu_time)    wall_clock(cpu1)
  | Time for this iteration                    :        0.106 s           0.107 s
  | Charge density update                      :        0.030 s           0.030 s
  | Density mixing                             :        0.003 s           0.004 s
  | Hartree multipole update                   :        0.005 s           0.004 s
  | Hartree multipole summation                :        0.025 s           0.024 s
  | Integration                                :        0.042 s           0.042 s
  | Solution of K.-S. eqns.                    :        0.001 s           0.002 s
  | Total energy evaluation                    :        0.000 s           0.000 s
------------------------------------------------------------

------------------------------------------------------------
          Begin self-consistency iteration #   10

  Date     :  20190722, Time     :  144518.482
------------------------------------------------------------
  Evaluating new KS density.
  Integration grid: deviation in total charge (<rho> - N_e) =  -1.498570E-10
  Pulay mixing of updated and previous charge densities.

  Evaluating partitioned Hartree potential by multipole expansion.
  | Analytical far-field extrapolation by fixed multipoles:
  | Hartree multipole sum: apparent total charge =   0.100004E+01
  Summing up the Hartree potential.
  Time summed over all CPUs for potential: real work        0.099 s, elapsed        0.108 s
  | RMS charge density error from multipole expansion :   0.492718E-03

  Integrating Hamiltonian matrix: batch-based integration.
  Time summed over all CPUs for integration: real work        0.167 s, elapsed        0.174 s

  Updating Kohn-Sham eigenvalues, eigenvectors, occupation numbers, and Fermi level.
  Solving generalized eigenproblem
  Updating Kohn-Sham eigenvalues and eigenfunctions.
  Solving real generalised eigenvalue problem by standard LAPACK (fast)
  Determining occupation numbers for Kohn-Sham eigenstates.
  | Chemical potential (Fermi level) in eV                 : -.17465191E+02
  | Error in electron count due to remaining E_F inaccuracy: -.19735324E-09
  | Maximum occupation number of highest empty state:  0.00E+00

  Highest occupied state (VBM) at    -25.60128451 eV
  | Occupation number:      2.00000000

  Lowest unoccupied state (CBM) at   -17.46042647 eV
  | Occupation number:      0.50039844

  Overall HOMO-LUMO gap:      8.14085805 eV.

  Total energy components:
  | Sum of eigenvalues            :         -89.78879233 Ha       -2443.27735182 eV
  | XC energy correction          :         -16.45083801 Ha        -447.65007834 eV
  | XC potential correction       :          21.14183393 Ha         575.29857200 eV
  | Free-atom electrostatic energy:         -71.52330919 Ha       -1946.24826722 eV
  | Hartree energy correction     :           6.82803692 Ha         185.80033799 eV
  | Entropy correction            :          -0.00016515 Ha          -0.00449404 eV
  | ---------------------------
  | Total energy                  :        -149.79306868 Ha       -4076.07678739 eV
  | Total energy, T -> 0          :        -149.79323384 Ha       -4076.08128143 eV  <-- do not rely on this value for anything but (periodic) metals
  | Electronic free energy        :        -149.79339899 Ha       -4076.08577547 eV

  Derived energy quantities:
  | Kinetic energy                :         149.44501365 Ha        4066.60572795 eV
  | Electrostatic energy          :        -282.78724432 Ha       -7695.03243699 eV
  | Energy correction for multipole
  | error in Hartree potential    :          -0.00053644 Ha          -0.01459732 eV
  | Sum of eigenvalues per atom                           :       -1221.63867591 eV
  | Total energy (T->0) per atom                          :       -2038.04064071 eV  <-- do not rely on this value for anything but (periodic) metals
  | Electronic free energy per atom                       :       -2038.04288773 eV

  Self-consistency convergence accuracy:
  | Change of charge density      :  0.2815E-03
  | Change of sum of eigenvalues  :  0.8694E-02 eV
  | Change of total energy        :  0.8668E-07 eV

  End self-consistency iteration #    10       :  max(cpu_time)    wall_clock(cpu1)
  | Time for this iteration                    :        0.112 s           0.111 s
  | Charge density update                      :        0.030 s           0.029 s
  | Density mixing                             :        0.003 s           0.004 s
  | Hartree multipole update                   :        0.005 s           0.004 s
  | Hartree multipole summation                :        0.028 s           0.028 s
  | Integration                                :        0.043 s           0.043 s
  | Solution of K.-S. eqns.                    :        0.001 s           0.002 s
  | Total energy evaluation                    :        0.000 s           0.001 s
------------------------------------------------------------

------------------------------------------------------------
          Begin self-consistency iteration #   11

  Date     :  20190722, Time     :  144518.594
------------------------------------------------------------
  Evaluating new KS density.
  Integration grid: deviation in total charge (<rho> - N_e) =  -1.973532E-10
  Pulay mixing of updated and previous charge densities.

  Evaluating partitioned Hartree potential by multipole expansion.
  | Analytical far-field extrapolation by fixed multipoles:
  | Hartree multipole sum: apparent total charge =   0.999993E+00
  Summing up the Hartree potential.
  Time summed over all CPUs for potential: real work        0.098 s, elapsed        0.104 s
  | RMS charge density error from multipole expansion :   0.492779E-03

  Integrating Hamiltonian matrix: batch-based integration.
  Time summed over all CPUs for integration: real work        0.165 s, elapsed        0.169 s

  Updating Kohn-Sham eigenvalues, eigenvectors, occupation numbers, and Fermi level.
  Solving generalized eigenproblem
  Updating Kohn-Sham eigenvalues and eigenfunctions.
  Solving real generalised eigenvalue problem by standard LAPACK (fast)
  Determining occupation numbers for Kohn-Sham eigenstates.
  | Chemical potential (Fermi level) in eV                 : -.17463716E+02
  | Error in electron count due to remaining E_F inaccuracy: -.39398529E-09
  | Maximum occupation number of highest empty state:  0.00E+00

  Highest occupied state (VBM) at    -25.59981648 eV
  | Occupation number:      2.00000000

  Lowest unoccupied state (CBM) at   -17.45894697 eV
  | Occupation number:      0.50000588

  Overall HOMO-LUMO gap:      8.14086951 eV.

  Total energy components:
  | Sum of eigenvalues            :         -89.78790401 Ha       -2443.25317947 eV
  | XC energy correction          :         -16.45092695 Ha        -447.65249868 eV
  | XC potential correction       :          21.14195146 Ha         575.30177030 eV
  | Free-atom electrostatic energy:         -71.52330919 Ha       -1946.24826722 eV
  | Hartree energy correction     :           6.82712002 Ha         185.77538778 eV
  | Entropy correction            :          -0.00016515 Ha          -0.00449404 eV
  | ---------------------------
  | Total energy                  :        -149.79306868 Ha       -4076.07678730 eV
  | Total energy, T -> 0          :        -149.79323383 Ha       -4076.08128134 eV  <-- do not rely on this value for anything but (periodic) metals
  | Electronic free energy        :        -149.79339899 Ha       -4076.08577538 eV

  Derived energy quantities:
  | Kinetic energy                :         149.44534038 Ha        4066.61461886 eV
  | Electrostatic energy          :        -282.78748211 Ha       -7695.03890748 eV
  | Energy correction for multipole
  | error in Hartree potential    :          -0.00053637 Ha          -0.01459529 eV
  | Sum of eigenvalues per atom                           :       -1221.62658974 eV
  | Total energy (T->0) per atom                          :       -2038.04064067 eV  <-- do not rely on this value for anything but (periodic) metals
  | Electronic free energy per atom                       :       -2038.04288769 eV

  Self-consistency convergence accuracy:
  | Change of charge density      :  0.1455E-03
  | Change of sum of eigenvalues  :  0.2417E-01 eV
  | Change of total energy        :  0.8672E-07 eV

  End self-consistency iteration #    11       :  max(cpu_time)    wall_clock(cpu1)
  | Time for this iteration                    :        0.108 s           0.109 s
  | Charge density update                      :        0.031 s           0.031 s
  | Density mixing                             :        0.002 s           0.003 s
  | Hartree multipole update                   :        0.004 s           0.004 s
  | Hartree multipole summation                :        0.027 s           0.026 s
  | Integration                                :        0.043 s           0.043 s
  | Solution of K.-S. eqns.                    :        0.001 s           0.001 s
  | Total energy evaluation                    :        0.000 s           0.001 s
------------------------------------------------------------

------------------------------------------------------------
          Begin self-consistency iteration #   12

  Date     :  20190722, Time     :  144518.704
------------------------------------------------------------
  Evaluating new KS density.
  Integration grid: deviation in total charge (<rho> - N_e) =  -3.942429E-10
  Pulay mixing of updated and previous charge densities.

  Evaluating partitioned Hartree potential by multipole expansion.
  | Analytical far-field extrapolation by fixed multipoles:
  | Hartree multipole sum: apparent total charge =   0.999994E+00
  Summing up the Hartree potential.
  Time summed over all CPUs for potential: real work        0.099 s, elapsed        0.107 s
  | RMS charge density error from multipole expansion :   0.492780E-03

  Integrating Hamiltonian matrix: batch-based integration.
  Time summed over all CPUs for integration: real work        0.165 s, elapsed        0.167 s

  Updating Kohn-Sham eigenvalues, eigenvectors, occupation numbers, and Fermi level.
  Solving generalized eigenproblem
  Updating Kohn-Sham eigenvalues and eigenfunctions.
  Solving real generalised eigenvalue problem by standard LAPACK (fast)
  Determining occupation numbers for Kohn-Sham eigenstates.
  | Chemical potential (Fermi level) in eV                 : -.17463713E+02
  | Error in electron count due to remaining E_F inaccuracy: -.39254466E-09
  | Maximum occupation number of highest empty state:  0.00E+00

  Highest occupied state (VBM) at    -25.59981400 eV
  | Occupation number:      2.00000000

  Lowest unoccupied state (CBM) at   -17.45894398 eV
  | Occupation number:      0.50000217

  Overall HOMO-LUMO gap:      8.14087002 eV.

  Total energy components:
  | Sum of eigenvalues            :         -89.78790185 Ha       -2443.25312075 eV
  | XC energy correction          :         -16.45092759 Ha        -447.65251610 eV
  | XC potential correction       :          21.14195232 Ha         575.30179359 eV
  | Free-atom electrostatic energy:         -71.52330919 Ha       -1946.24826722 eV
  | Hartree energy correction     :           6.82711764 Ha         185.77532317 eV
  | Entropy correction            :          -0.00016515 Ha          -0.00449404 eV
  | ---------------------------
  | Total energy                  :        -149.79306868 Ha       -4076.07678730 eV
  | Total energy, T -> 0          :        -149.79323383 Ha       -4076.08128134 eV  <-- do not rely on this value for anything but (periodic) metals
[...]
  | Total energy (T->0) per atom                          :       -2038.04064067 eV  <-- do not rely on this value for anything but (periodic) metals
  | Electronic free energy per atom                       :       -2038.04288769 eV

  Self-consistency convergence accuracy:
  | Change of charge density      :  0.2404E-05
  | Change of sum of eigenvalues  :  0.5872E-04 eV
  | Change of total energy        : -0.1593E-09 eV

  Electronic self-consistency reached - switching on the force computation.

  End self-consistency iteration #    12       :  max(cpu_time)    wall_clock(cpu1)
  | Time for this iteration                    :        0.111 s           0.112 s
  | Charge density & force component update    :        0.031 s           0.032 s
  | Density mixing                             :        0.003 s           0.004 s
  | Hartree multipole update                   :        0.004 s           0.004 s
  | Hartree multipole summation                :        0.028 s           0.027 s
  | Integration                                :        0.042 s           0.042 s
  | Solution of K.-S. eqns.                    :        0.001 s           0.001 s
  | Total energy evaluation                    :        0.001 s           0.000 s
------------------------------------------------------------

------------------------------------------------------------
          Begin self-consistency iteration #   13

  Date     :  20190722, Time     :  144518.817
------------------------------------------------------------
  Evaluating new KS density.
  Integration grid: deviation in total charge (<rho> - N_e) =  -3.925145E-10
  Pulay mixing of updated and previous charge densities.

  Evaluating partitioned Hartree potential by multipole expansion.
  | Analytical far-field extrapolation by fixed multipoles:
  | Hartree multipole sum: apparent total charge =   0.999999E+00
  Summing up the Hartree potential.
  Time summed over all CPUs for potential: real work        0.254 s, elapsed        0.255 s
  | RMS charge density error from multipole expansion :   0.492780E-03

  Integrating Hamiltonian matrix: batch-based integration.
  Time summed over all CPUs for integration: real work        0.167 s, elapsed        0.170 s

  Updating Kohn-Sham eigenvalues, eigenvectors, occupation numbers, and Fermi level.
  Solving generalized eigenproblem
  Updating Kohn-Sham eigenvalues and eigenfunctions.
  Solving real generalised eigenvalue problem by standard LAPACK (fast)
  Determining occupation numbers for Kohn-Sham eigenstates.
  | Chemical potential (Fermi level) in eV                 : -.17463752E+02
  | Error in electron count due to remaining E_F inaccuracy: -.37909587E-09
  | Maximum occupation number of highest empty state:  0.00E+00

  Highest occupied state (VBM) at    -25.59985388 eV
  | Occupation number:      2.00000000

  Lowest unoccupied state (CBM) at   -17.45898255 eV
  | Occupation number:      0.50000004

  Overall HOMO-LUMO gap:      8.14087133 eV.

  Total energy components:
  | Sum of eigenvalues            :         -89.78792313 Ha       -2443.25369973 eV
  | XC energy correction          :         -16.45092715 Ha        -447.65250399 eV
  | XC potential correction       :          21.14195176 Ha         575.30177854 eV
  | Free-atom electrostatic energy:         -71.52330919 Ha       -1946.24826722 eV
  | Hartree energy correction     :           6.82713903 Ha         185.77590509 eV
  | Entropy correction            :          -0.00016515 Ha          -0.00449404 eV
  | ---------------------------
  | Total energy                  :        -149.79306868 Ha       -4076.07678730 eV
  | Total energy, T -> 0          :        -149.79323383 Ha       -4076.08128134 eV  <-- do not rely on this value for anything but (periodic) metals
  | Electronic free energy        :        -149.79339899 Ha       -4076.08577538 eV

  Derived energy quantities:
  | Kinetic energy                :         149.44534969 Ha        4066.61487221 eV
  | Electrostatic energy          :        -282.78749123 Ha       -7695.03915553 eV
  | Energy correction for multipole
  | error in Hartree potential    :          -0.00053637 Ha          -0.01459524 eV
  | Sum of eigenvalues per atom                           :       -1221.62684986 eV
  | Total energy (T->0) per atom                          :       -2038.04064067 eV  <-- do not rely on this value for anything but (periodic) metals
  | Electronic free energy per atom                       :       -2038.04288769 eV

  atomic forces [eV/Ang]:
  -----------------------
  atom #    1
   Hellmann-Feynman              :  0.536457E-11  0.166832E-10 -0.153647E+02
   Ionic forces                  :  0.000000E+00  0.000000E+00  0.000000E+00
   Multipole                     :  0.421819E-13  0.199811E-12 -0.595171E-01
   Pulay + GGA                   :  0.000000E+00  0.000000E+00  0.000000E+00
   ----------------------------------------------------------------
   Total forces(   1)            :  0.540675E-11  0.168830E-10 -0.154242E+02
  atom #    2
   Hellmann-Feynman              : -0.601792E-10  0.633358E-10  0.153647E+02
   Ionic forces                  :  0.000000E+00  0.000000E+00  0.000000E+00
   Multipole                     : -0.329410E-13 -0.180039E-12  0.595171E-01
   Pulay + GGA                   :  0.000000E+00  0.000000E+00  0.000000E+00
   ----------------------------------------------------------------
   Total forces(   2)            : -0.602121E-10  0.631558E-10  0.154242E+02


  Self-consistency convergence accuracy:
  | Change of charge density      :  0.1159E-05
  | Change of sum of eigenvalues  : -0.5790E-03 eV
  | Change of total energy        :  0.1408E-09 eV
  | Change of forces              :  0.1542E+02 eV/A

  End self-consistency iteration #    13       :  max(cpu_time)    wall_clock(cpu1)
  | Time for this iteration                    :        0.147 s           0.146 s
  | Charge density & force component update    :        0.030 s           0.030 s
  | Density mixing                             :        0.003 s           0.003 s
  | Hartree multipole update                   :        0.004 s           0.004 s
  | Hartree multipole summation                :        0.064 s           0.064 s
  | Integration                                :        0.043 s           0.043 s
  | Solution of K.-S. eqns.                    :        0.001 s           0.001 s
  | Total energy evaluation                    :        0.001 s           0.001 s
------------------------------------------------------------

------------------------------------------------------------
          Begin self-consistency iteration #   14

  Date     :  20190722, Time     :  144518.965
------------------------------------------------------------
  Evaluating new KS density and force components.
  Integration grid: deviation in total charge (<rho> - N_e) =  -3.793410E-10
  Pulay mixing of updated and previous charge densities.

  Evaluating partitioned Hartree potential by multipole expansion.
  | Analytical far-field extrapolation by fixed multipoles:
  | Hartree multipole sum: apparent total charge =   0.999999E+00
  Summing up the Hartree potential.
  Time summed over all CPUs for potential: real work        0.257 s, elapsed        0.260 s
  | RMS charge density error from multipole expansion :   0.492780E-03

  Integrating Hamiltonian matrix: batch-based integration.
  Time summed over all CPUs for integration: real work        0.166 s, elapsed        0.168 s

  Updating Kohn-Sham eigenvalues, eigenvectors, occupation numbers, and Fermi level.
  Solving generalized eigenproblem
  Updating Kohn-Sham eigenvalues and eigenfunctions.
  Solving real generalised eigenvalue problem by standard LAPACK (fast)
  Determining occupation numbers for Kohn-Sham eigenstates.
  | Chemical potential (Fermi level) in eV                 : -.17463752E+02
  | Error in electron count due to remaining E_F inaccuracy: -.37882231E-09
  | Maximum occupation number of highest empty state:  0.00E+00

  Highest occupied state (VBM) at    -25.59985408 eV
  | Occupation number:      2.00000000

  Lowest unoccupied state (CBM) at   -17.45898275 eV
  | Occupation number:      0.50000006

  Overall HOMO-LUMO gap:      8.14087133 eV.

  Total energy components:
  | Sum of eigenvalues            :         -89.78792323 Ha       -2443.25370251 eV
  | XC energy correction          :         -16.45092715 Ha        -447.65250398 eV
  | XC potential correction       :          21.14195176 Ha         575.30177854 eV
  | Free-atom electrostatic energy:         -71.52330919 Ha       -1946.24826722 eV
  | Hartree energy correction     :           6.82713913 Ha         185.77590786 eV
  | Entropy correction            :          -0.00016515 Ha          -0.00449404 eV
  | ---------------------------
  | Total energy                  :        -149.79306868 Ha       -4076.07678730 eV
  | Total energy, T -> 0          :        -149.79323383 Ha       -4076.08128134 eV  <-- do not rely on this value for anything but (periodic) metals
  | Electronic free energy        :        -149.79339899 Ha       -4076.08577538 eV

  Derived energy quantities:
  | Kinetic energy                :         149.44534970 Ha        4066.61487231 eV
  | Electrostatic energy          :        -282.78749123 Ha       -7695.03915563 eV
  | Energy correction for multipole
  | error in Hartree potential    :          -0.00053637 Ha          -0.01459524 eV
  | Sum of eigenvalues per atom                           :       -1221.62685125 eV
  | Total energy (T->0) per atom                          :       -2038.04064067 eV  <-- do not rely on this value for anything but (periodic) metals
  | Electronic free energy per atom                       :       -2038.04288769 eV

  atomic forces [eV/Ang]:
  -----------------------
  atom #    1
   Hellmann-Feynman              :  0.202728E-10 -0.397792E-11 -0.153647E+02
   Ionic forces                  :  0.000000E+00  0.000000E+00  0.000000E+00
   Multipole                     :  0.284683E-13  0.149322E-12 -0.595171E-01
   Pulay + GGA                   : -0.217227E-11 -0.491687E-11  0.156935E+02
   ----------------------------------------------------------------
   Total forces(   1)            :  0.181290E-10 -0.874547E-11  0.269274E+00
  atom #    2
   Hellmann-Feynman              : -0.303247E-10  0.411900E-10  0.153647E+02
   Ionic forces                  :  0.000000E+00  0.000000E+00  0.000000E+00
   Multipole                     : -0.692244E-13 -0.138313E-12  0.595171E-01
   Pulay + GGA                   :  0.111611E-10 -0.116178E-10 -0.156935E+02
   ----------------------------------------------------------------
   Total forces(   2)            : -0.192329E-10  0.294338E-10 -0.269274E+00


  Self-consistency convergence accuracy:
  | Change of charge density      :  0.2829E-07
  | Change of sum of eigenvalues  : -0.2780E-05 eV
  | Change of total energy        : -0.7734E-11 eV
  | Change of forces              :  0.3009E-05 eV/A

  Writing Kohn-Sham eigenvalues.

  State    Occupation    Eigenvalue [Ha]    Eigenvalue [eV]
      1       2.00000         -19.412708         -528.24667
      2       2.00000         -19.412496         -528.24090
      3       2.00000          -1.741319          -47.38371
      4       2.00000          -1.152615          -31.36426
      5       2.00000          -0.956621          -26.03098
      6       2.00000          -0.956621          -26.03098
      7       2.00000          -0.940777          -25.59985
      8       0.50000          -0.641606          -17.45898
      9       0.50000          -0.641606          -17.45898
     10       0.00000          -0.184003           -5.00697
     11       0.00000          -0.160781           -4.37507
     12       0.00000          -0.115128           -3.13279
     13       0.00000          -0.115128           -3.13279
     14       0.00000          -0.063116           -1.71748

  Highest occupied state (VBM) at    -25.59985408 eV
  | Occupation number:      2.00000000

  Lowest unoccupied state (CBM) at   -17.45898275 eV
  | Occupation number:      0.50000006

  Overall HOMO-LUMO gap:      8.14087133 eV.

  Self-consistency cycle converged.

  End self-consistency iteration #    14       :  max(cpu_time)    wall_clock(cpu1)
  | Time for this iteration                    :        0.228 s           0.229 s
  | Charge density & force component update    :        0.103 s           0.104 s
  | Density mixing                             :        0.005 s           0.005 s
  | Hartree multipole update                   :        0.005 s           0.004 s
  | Hartree multipole summation                :        0.067 s           0.067 s
  | Integration                                :        0.043 s           0.042 s
  | Solution of K.-S. eqns.                    :        0.003 s           0.004 s
  | Total energy evaluation                    :        0.002 s           0.002 s
------------------------------------------------------------
  Writing cluster restart information to file restart
  ------------------------------------------------------------
   Computing monopole / dipole moments for complete molecule:
  | Total electronic charge [e]         :          0.150000000831327E+02
  | Total ionic charge [e]              :          0.160000000000000E+02
  | Total charge [e]                    :          0.999999916867289E+00
 * Warning: The system has a total charge of      0.99999992 .
 * The dipole moment depends on the choice of the origin.
  | Total dipole moment [eAng]          :         -0.196814082087382E-14        -0.259236458868828E-14         0.602499949912564E+00
  | Absolute dipole moment              :          0.602499949912564E+00 eAng              /                   0.289347957674188E+01 Debye  .
  Removing unitary transformations (pure translations, rotations) from forces on atoms.
  Atomic forces before filtering:
  | Net force on center of mass :  -0.110384E-11  0.206884E-10  0.265397E-11 eV/A
  | Net torque on center of mass:  -0.214812E-10 -0.210213E-10  0.000000E+00 eV
  Atomic forces after filtering:
  | Net force on center of mass :  -0.324519E-27  0.519230E-26  0.000000E+00 eV/A
  | Net torque on center of mass:  -0.584280E-26 -0.292140E-26  0.000000E+00 eV

  Energy and forces in a compact form:
  | Total energy uncorrected      :         -0.407607678730207E+04 eV
  | Total energy corrected        :         -0.407608128134135E+04 eV  <-- do not rely on this value for anything but (periodic) metals
  | Electronic free energy        :         -0.407608577538064E+04 eV
  Total atomic forces (unitary forces cleaned) [eV/Ang]:
  |   1          0.243389136984796E-26         -0.259615079450449E-26          0.269274438006745E+00
  |   2         -0.275841021916102E-26          0.778845238351347E-26         -0.269274438006745E+00

  ------------------------------------ 
  Start decomposition of the XC Energy 
  ------------------------------------ 
  Hartree-Fock part   :          0.000000000 Ha              0.000000000 eV
  ------------------------------------ 
  X Energy            :        -15.947663157 Ha           -433.957994045 eV
  C Energy GGA        :         -0.503263990 Ha            -13.694509932 eV
  Total XC Energy     :        -16.450927147 Ha           -447.652503977 eV
  LDA X and C from self-consistent density 
  X Energy LDA        :        -14.463100157 Ha           -393.560979432 eV
  C Energy LDA        :         -1.061536305 Ha            -28.885872554 eV
  ------------------------------------ 
  End decomposition of the XC Energy 
  ------------------------------------ 

------------------------------------------------------------------------------
  Final output of selected total energy values:

  The following output summarizes some interesting total energy values
  at the end of a run (AFTER all relaxation, molecular dynamics, etc.).

  | Total energy of the DFT / Hartree-Fock s.c.f. calculation      :          -4076.076787302 eV
  | Final zero-broadening corrected energy (caution - metals only) :          -4076.081281341 eV
  | For reference only, the value of 1 Hartree used in FHI-aims is :             27.211384500 eV

  Before relying on these values, please be sure to understand exactly which
  total energy value is referred to by a given number. Different objects may
  all carry the same name 'total energy'. Definitions:

  Total energy of the DFT / Hartree-Fock s.c.f. calculation:
  | Note that this energy does not include ANY quantities calculated after the
  | s.c.f. cycle, in particular not ANY RPA, MP2, etc. many-body perturbation terms.

  Final zero-broadening corrected energy:
  | For metallic systems only, a broadening of the occupation numbers at the Fermi
  | level can be extrapolated back to zero broadening by an electron-gas inspired
  | formula. For all systems that are not real metals, this value can be
  | meaningless and should be avoided.

------------------------------------------------------------------------------
  Methods described in the following list of references were used in this FHI-aims run.
  If you publish the results, please make sure to cite these reference if they apply.
  FHI-aims is an academic code, and for our developers (often, Ph.D. students
  and postdocs), scientific credit in the community is essential.
  Thank you for helping us!

  For any use of FHI-aims, please cite:

    Volker Blum, Ralf Gehrke, Felix Hanke, Paula Havu, Ville Havu,
    Xinguo Ren, Karsten Reuter, and Matthias Scheffler
    'Ab initio molecular simulations with numeric atom-centered orbitals'
    Computer Physics Communications 180, 2175-2196 (2009)
    http://dx.doi.org/10.1016/j.cpc.2009.06.022


  For the real-space grid partitioning and parallelization used in this calculation, please cite:

    Ville Havu, Volker Blum, Paula Havu, and Matthias Scheffler,
    'Efficient O(N) integration for all-electron electronic structure calculation'
    'using numerically tabulated basis functions'
    Journal of Computational Physics 228, 8367-8379 (2009).
    http://dx.doi.org/10.1016/j.jcp.2009.08.008

  Of course, there are many other important community references, e.g., those cited in the
  above references. Our list is limited to references that describe implementations in the
  FHI-aims code. The reason is purely practical (length of this list) - please credit others as well.

------------------------------------------------------------
          Leaving FHI-aims.
          Date     :  20190722, Time     :  144519.239

          Computational steps:
          | Number of self-consistency cycles          :           14

          Detailed time accounting                     :  max(cpu_time)    wall_clock(cpu1)
          | Total time                                 :        2.155 s           2.176 s
          | Preparation time                           :        0.148 s           0.164 s
          | Grid partitioning                          :        0.023 s           0.023 s
          | Preloading free-atom quantities on grid    :        0.017 s           0.018 s
          | Free-atom superposition energy             :        0.009 s           0.008 s
          | Total time for integrations                :        0.704 s           0.699 s
          | Total time for solution of K.-S. equations :        0.030 s           0.039 s
          | Total time for density & force components  :        0.533 s           0.531 s
          | Total time for mixing                      :        0.036 s           0.042 s
          | Total time for Hartree multipole update    :        0.067 s           0.057 s
          | Total time for Hartree multipole sum       :        0.481 s           0.474 s
          | Total time for total energy evaluation     :        0.007 s           0.016 s

          Have a nice day.
------------------------------------------------------------
