  MPI-parallelism will be employed.
------------------------------------------------------------
          Invoking FHI-aims ...
          Version 160328_3
          Compiled on 2019/06/10 at 14:55:49 on host taito-login3.csc.fi.

          When using FHI-aims, please cite the following reference:

          Volker Blum, Ralf Gehrke, Felix Hanke, Paula Havu,
          Ville Havu, Xinguo Ren, Karsten Reuter, and Matthias Scheffler,
          'Ab Initio Molecular Simulations with Numeric Atom-Centered Orbitals',
          Computer Physics Communications 180, 2175-2196 (2009)

          For any questions about FHI-aims, please visit the aimsclub website
          with its forums and wiki. Contributions to both the forums and the
          wiki are warmly encouraged - they are for you, and everyone is welcome there.

------------------------------------------------------------

  Date     :  20190722, Time     :  144527.324
  Time zero on CPU 1             :   0.549900000000000E-01  s.
  Internal wall clock time zero  :           333038727.324  s.

  Using        4 parallel tasks.
  Task        0 on host c798 reporting.
  Task        1 on host c798 reporting.
  Task        2 on host c798 reporting.
  Task        3 on host c798 reporting.

  Performing system and environment tests:
  | Environment variable OMP_NUM_THREADS correctly set to 1.
  | Maximum stacksize for task 0: unlimited
  | Maximum stacksize for task 1: unlimited
  | Maximum stacksize for task 2: unlimited
  | Maximum stacksize for task 3: unlimited
  | Current stacksize for task 0: 1024 [Mb]
  | Current stacksize for task 1: 1024 [Mb]
  | Current stacksize for task 2: 1024 [Mb]
  | Current stacksize for task 3: 1024 [Mb]
  | Checking for scalapack...
  | No scalapack compiled in.

  Obtaining array dimensions for all initial allocations:
  
  -----------------------------------------------------------------------
  Parsing control.in (first pass over file, find array dimensions only).
  The contents of control.in will be repeated verbatim below
  unless switched off by setting 'verbatim_writeout .false.' .
  in the first line of control.in .
  -----------------------------------------------------------------------
  
    #  Physical model settings
    #
  
    xc                            pbe
    charge                        0.0
    relativistic                  none
  #  default_initial_moment        0.0
    spin                          none
  #  vdw_correction_hirshfeld
  
    #  SCF convergence settings
    #
  
    sc_accuracy_rho               1E-4
    sc_accuracy_eev               1E-2
    sc_accuracy_etot              1E-8
    sc_iter_limit                 100
  
    #  Occupation settings
    #
  
    restart                       restart
  #  force_occupation_projector      21 1 1.0 20 21 # ion 0
  #  force_occupation_projector      20 1 1.0 20 21 # ion 1
  #  force_occupation_projector      19 1 1.0 18 19 # ion 2
  #  force_occupation_projector      18 1 1.0 18 19 # ion 3
  #  force_occupation_projector      17 1 1.0 17 17 # ion 4
  
    #  Relaxation
    #
  
    ############relax_geometry                bfgs    1.e-4
  
  
  ################################################################################
  #
  #  FHI-aims code project
  #  VB, Fritz-Haber Institut, 2007
  #
  #  Suggested "safe" defaults for O atom (to be pasted into control.in file)
  #
  ################################################################################
    species        O
  #     global species definitions
      nucleus             8
      mass                15.9994
  #
      l_hartree           8
  #
      cut_pot             4.0  2.0  1.0
      basis_dep_cutoff    0.d0
  #
      radial_base         36 7.0
      radial_multiplier   2
       angular_grids specified
        division   0.4087  110
        division   0.5181  194
        division   0.6184  302
        division   0.7315  434
        division   0.7934  590
  #      division   0.9656  770
  #      division   1.4041  974
  #      outer_grid 974
        outer_grid 590
  ################################################################################
  #
  #  Definition of "minimal" basis
  #
  ################################################################################
  #     valence basis states
      valence      2  s   2.
      valence      2  p   4.
  #     ion occupancy
      ion_occ      2  s   1.
      ion_occ      2  p   3.
  ################################################################################
  #
  #  Suggested additional basis functions. For production calculations,
  #  uncomment them one after another (the most important basis functions are
  #  listed first).
  #
  #  Constructed for dimers: 1.0 A, 1.208 A, 1.5 A, 2.0 A, 3.0 A
  #
  ################################################################################
  #  "First tier" - improvements: -699.05 meV to -159.38 meV
       hydro 2 p 1.8
       hydro 3 d 7.6
       hydro 3 s 6.4
  #  "Second tier" - improvements: -49.91 meV to -5.39 meV
       hydro 4 f 11.6
       hydro 3 p 6.2
       hydro 3 d 5.6
       hydro 5 g 17.6
       hydro 1 s 0.75
  #  "Third tier" - improvements: -2.83 meV to -0.50 meV
  #     ionic 2 p auto
  #     hydro 4 f 10.8
  #     hydro 4 d 4.7
  #     hydro 2 s 6.8
  #  "Fourth tier" - improvements: -0.40 meV to -0.12 meV
  #     hydro 3 p 5
  #     hydro 3 s 3.3
  #     hydro 5 g 15.6
  #     hydro 4 f 17.6
  #     hydro 4 d 14
  # Further basis functions - -0.08 meV and below
  #     hydro 3 s 2.1
  #     hydro 4 d 11.6
  #     hydro 3 p 16
  #     hydro 2 s 17.2
  compute_forces .true.
  final_forces_cleaned .true.
  output dipole
  
  -----------------------------------------------------------------------
  Completed first pass over input file control.in .
  -----------------------------------------------------------------------
  
  
  -----------------------------------------------------------------------
  Parsing geometry.in (first pass over file, find array dimensions only).
  The contents of geometry.in will be repeated verbatim below
  unless switched off by setting 'verbatim_writeout .false.' .
  in the first line of geometry.in .
  -----------------------------------------------------------------------
  
  #
  # temporary structure-file for finite-difference calculation of forces
  # displacement   0.0025 of \# atom     1 direction     2
  #
  atom   -0.00000000    0.00000000   -0.00608953   O
  atom   -0.00000000   -0.00000000    1.21608953   O
  
  -----------------------------------------------------------------------
  Completed first pass over input file geometry.in .
  -----------------------------------------------------------------------
  

  Basic array size parameters:
  | Number of species                 :        1
  | Number of atoms                   :        2
  | Max. basis fn. angular momentum   :        4
  | Max. atomic/ionic basis occupied n:        2
  | Max. number of basis fn. types    :        2
  | Max. radial fns per species/type  :        8
  | Max. logarithmic grid size        :     1301
  | Max. radial integration grid size :       73
  | Max. angular integration grid size:      590
  | Max. angular grid division number :        8
  | Radial grid for Hartree potential :     1301
  | Number of spin channels           :        1

------------------------------------------------------------
          Reading file control.in.
------------------------------------------------------------
  XC: Using PBE gradient-corrected functionals.
  Charge =   0.000000E+00: Neutral system requested explicitly.
  Non-relativistic treatment of kinetic energy.
  Spin treatment: No spin polarisation.
  Convergence accuracy of self-consistent charge density:  0.1000E-03
  Convergence accuracy of sum of eigenvalues:  0.1000E-01
  Convergence accuracy of total energy:  0.1000E-07
  Maximum number of s.-c. iterations  :   100
  Restart file specified as : restart
  | This file does not exist, will create it after the first complete scf cycle.
 
  Reading configuration options for species O                   .
  | Found nuclear charge :   8.0000
  | Found atomic mass :    15.9994000000000      amu
  | Found l_max for Hartree potential  :   8
  | Found cutoff potl. onset [A], width [A], scale factor :    4.00000    2.00000    1.00000
  | Threshold for basis-dependent cutoff potential is   0.000000E+00
  | Found data for basic radial integration grid :    36 points, outermost radius =    7.000 A
  | Found multiplier for basic radial grid :   2
  | Found angular grid specification: user-specified.
  | Specified grid contains     6 separate shells.
  | Check grid settings after all constraints further below.
  | Found free-atom valence shell :  2 s   2.000
  | Found free-atom valence shell :  2 p   4.000
  | No ionic wave fns used. Skipping ion_occ.
  | No ionic wave fns used. Skipping ion_occ.
  | Found hydrogenic basis function :  2 p   1.800
  | Found hydrogenic basis function :  3 d   7.600
  | Found hydrogenic basis function :  3 s   6.400
  | Found hydrogenic basis function :  4 f  11.600
  | Found hydrogenic basis function :  3 p   6.200
  | Found hydrogenic basis function :  3 d   5.600
  | Found hydrogenic basis function :  5 g  17.600
  | Found hydrogenic basis function :  1 s   0.750
  Species O                   : Missing cutoff potential type.
  Defaulting to exp(1/x)/(1-x)^2 type cutoff potential.
  Species O : No 'logarithmic' tag. Using default grid for free atom:
  | Default logarithmic grid data [bohr] : 0.1000E-03 0.1000E+03 0.1012E+01
  Species O : On-site basis accuracy parameter (for Gram-Schmidt orthonormalisation) not specified.
  Using default value basis_acc =  0.1000000E-03.
  Species O                   : Using default innermost maximum threshold i_radial=  2 for radial functions.
  Species O                   : Default cutoff onset for free atom density etc. : 0.40000000E+01 AA.
  Species O                   : Basic radial grid will be enhanced according to radial_multiplier =   2, to contain    73 grid points.
  Forces will be computed.
  Cleaning forces before final output.
  Dipole moment will be written out.
 
  Finished reading input file 'control.in'. Consistency checks are next.
 
  Target number of points in a grid batch is not set. Defaulting to  100
  Method for grid partitioning is not set. Defaulting to parallel hash+maxmin partitioning.
  Batch size limit is not set. Defaulting to    200
  By default, will store active basis functions for each batch.
  If in need of memory, prune_basis_once .false. can be used to disable this option.
  communication_type for Hartree potential was not specified.
  Defaulting to calc_hartree .
  Defaulting to Pulay charge density mixer.
  Pulay mixer: Number of relevant iterations not set.
  Defaulting to    8 iterations.
  Pulay mixer: Number of initial linear mixing iterations not set.
  Defaulting to    0 iterations.
  Work space size for distributed Hartree potential not set.
  Defaulting to   0.200000E+03 MB.
  Mixing parameter for charge density mixing has not been set.
  Using default: charge_mix_param =     0.2000.
  Algorithm-dependent basis array size parameters:
  | n_max_pulay                         :        8
  Geometry relaxation not requested: no relaxation will be performed.
  Force calculation: scf convergence accuracy of forces not set.
  Defaulting to  0.1000E-03 eV/A.
  Handling of forces: Unphysical translation and rotation will be removed from forces.
  No accuracy limit for integral partition fn. given. Defaulting to  0.1000E-14.
  No threshold value for u(r) in integrations given. Defaulting to  0.1000E-05.
  No occupation type (smearing scheme) given. Defaulting to Gaussian broadening, width =  0.1000E-01 eV.
  No accuracy for occupation numbers given. Defaulting to  0.1000E-07.
  No threshold value for occupation numbers given. Defaulting to  0.0000E+00.
  No accuracy for fermi level given. Defaulting to  0.1000E-19.
  Maximum # of iterations to find E_F not set. Defaulting to  200.
  Preferred method for the eigenvalue solver ('KS_method') not specified in 'control.in'.
  Calling blacs routine to test compilation state
  The best choice would be 'elpa', but your version of FHI-aims is compiled without scalapack support.
  Defaulting to 'lapack_fast' instead (serial solution, time will not improve with more CPUs).
  Will not use alltoall communication since running on < 1024 CPUs.
  Threshold for basis singularities not set.
  Default threshold for basis singularities:  0.1000E-04
  partition_type (choice of integration weights) for integrals was not specified.
  | Using a version of the partition function of Stratmann and coworkers ('stratmann_smoother').
  | At each grid point, the set of atoms used to build the partition table is smoothly restricted to
  | only those atoms whose free-atom density would be non-zero at that grid point.
  Partitioning for Hartree potential was not defined. Using partition_type for integrals.
  | Adjusted default value of keyword multip_moments_threshold to:       0.10000000E-11
  | This value may affect high angular momentum components of the Hartree potential in periodic systems.
  No q(lm)/r^(l+1) cutoff set for long-range Hartree potential.
  | Using default value of  0.100000E-09 .
  | Verify using the multipole_threshold keyword.
  Defaulting to new monopole extrapolation.
  Density update method: automatic selection selected.
------------------------------------------------------------


------------------------------------------------------------
          Reading geometry description geometry.in.
------------------------------------------------------------
  Input structure read successfully.
  The structure contains        2 atoms,  and a total of         16.000 electrons.

  Input geometry:
  | No unit cell requested.
  | Atomic structure:
  |       Atom                x [A]            y [A]            z [A]
  |    1: Species O              0.000000         0.000000        -0.006090
  |    2: Species O              0.000000         0.000000         1.216090
  |

  | The smallest distance between any two atoms is         1.22217906 AA.
  |
  | The first atom of this pair is atom number                      1 .
  | The second atom of this pair is atom number                     2 .

  Number of empty states per atom not set in control.in - providing a guess from actual geometry.
  | Total number of empty states used during s.c.f. cycle:        6
  If you use a very high smearing, use empty_states (per atom!) in control.in to increase this value.

  Structure-dependent array size parameters: 
  | Maximum number of distinct radial functions  :       11
  | Maximum number of basis functions            :       78
  | Number of Kohn-Sham states (occupied + empty):       14
------------------------------------------------------------

------------------------------------------------------------
          Preparing all fixed parts of the calculation.
------------------------------------------------------------
  Determining machine precision:
    2.225073858507201E-308
  Setting up grids for atomic and cluster calculations.

  Creating wave function, potential, and density for free atoms.

  Species: O

  List of occupied orbitals and eigenvalues:
    n    l              occ      energy [Ha]    energy [eV]
    1    0           2.0000       -18.898576      -514.2564
    2    0           2.0000        -0.878795       -23.9132
    2    1           4.0000        -0.332075        -9.0362

  Creating fixed part of basis set: Ionic, confined, hydrogenic.
 
  O                    hydrogenic:
 
  List of hydrogenic basis orbitals: 
    n    l      effective z      eigenvalue [eV]  inner max. [A]     outer max. [A]     outer radius [A]   
    2    1         1.800000       -11.0118           1.178562           1.178562           5.432602
    3    2         7.600000       -87.3183           0.624125           0.624125           4.634338
    3    0         6.400000       -61.9210           0.061167           1.081902           5.110480
    4    3        11.600000      -114.4239           0.731631           0.731631           4.522403
    3    1         6.200000       -58.1114           0.255680           1.030270           5.110480
    3    2         5.600000       -47.4083           0.847233           0.847233           5.173339
    5    4        17.600000      -168.5800           0.749740           0.749740           4.051222
    1    0         0.750000        -7.6499           0.705284           0.705284           5.366593
 

  Adding cutoff potential to free-atom effective potential.
  Creating atomic-like basis functions for current effective potential.

  Species O                   :

  List of atomic basis orbitals and eigenvalues:
    n    l      energy [Ha]    energy [eV]    outer radius [A]
    1    0       -18.898576      -514.2564       1.415765
    2    0        -0.878795       -23.9132       5.048385
    2    1        -0.332075        -9.0362       5.301386

  Assembling full basis from fixed parts.
  | Species O :   atomic orbital   1 s accepted.
  | Species O :   atomic orbital   2 s accepted.
  | Species O :    hydro orbital   3 s accepted.
  | Species O :    hydro orbital   1 s accepted.
  | Species O :   atomic orbital   2 p accepted.
  | Species O :    hydro orbital   2 p accepted.
  | Species O :    hydro orbital   3 p accepted.
  | Species O :    hydro orbital   3 d accepted.
  | Species O :    hydro orbital   3 d accepted.
  | Species O :    hydro orbital   4 f accepted.
  | Species O :    hydro orbital   5 g accepted.
 
  Basis size parameters after reduction:
  | Total number of radial functions:       11
  | Total number of basis functions :       78
 
  Testing on-site integration grid accuracy.
  |  Species  Function  <phi|h_atom|phi> (log., in eV)  <phi|h_atom|phi> (rad., in eV)
           1        1               -514.2564144315               -514.2564099626
           1        2                -23.9132357102                -23.9132356433
           1        3                 17.5398579759                 17.5398338425
           1        4                 14.5207278950                 14.5207740449
           1        5                 -9.0362392718                 -9.0362394845
           1        6                  7.9056275927                  7.9056237490
           1        7                 33.4201658992                 33.4201612015
           1        8                 45.8231952720                 45.8231953152
           1        9                 52.1937595491                 52.1937593440
           1       10                 85.4062894308                 85.4062894578
           1       11                142.0975701139                142.0975701391

  Preparing densities etc. for the partition functions (integrals / Hartree potential).

  Preparations completed.
  max(cpu_time)          :      0.144 s.
  Wall clock time (cpu1) :      0.157 s.
------------------------------------------------------------

------------------------------------------------------------
          Begin self-consistency loop: Initialization.

          Date     :  20190722, Time     :  144527.493
------------------------------------------------------------

  Initializing index lists of integration centers etc. from given atomic structure:
  | Number of centers in hartree potential         :         2
  | Number of centers in hartree multipole         :         2
  | Number of centers in electron density summation:         2
  | Number of centers in basis integrals           :         2
  | Number of centers in integrals                 :         2
  | Number of centers in hamiltonian               :         2
  Partitioning the integration grid into batches with parallel hashing+maxmin method.
  | Number of batches:      742
  | Maximal batch size:     113
  | Minimal batch size:      49
  | Average batch size:      71.779
  | Standard deviation of batch sizes:      21.706

  Integration load balanced across     4 MPI tasks.
  Work distribution over tasks is as follows:
  Task     0 has      13266 integration points.
  Task     1 has      13366 integration points.
  Task     2 has      13322 integration points.
  Task     3 has      13306 integration points.
  Initializing partition tables, free-atom densities, potentials, etc. across the integration grid (initialize_grid_storage).
  | initialize_grid_storage: Actual outermost partition radius vs. multipole_radius_free
  | (-- VB: in principle, multipole_radius_free should be larger, hence this output)
  | Species        1: Confinement radius =              6.000000000000000 AA, multipole_radius_free =              6.064445521808699 AA.
  | Species        1: outer_partition_radius set to              6.064445521808699 AA .
  | Original list of interatomic distances with           2 x          2 entries is created.
  | Net number of integration points:    53260
  | of which are non-zero points    :    50252
  Obtaining max. number of non-zero basis functions in each batch (get_n_compute_maxes).
  | Maximal number of non-zero basis functions:       78 in task     0
  | Maximal number of non-zero basis functions:       78 in task     1
  | Maximal number of non-zero basis functions:       78 in task     2
  | Maximal number of non-zero basis functions:       78 in task     3
  Selecting the method for density update.
  Loop over occupied states selected for charge density update.
  Integrating Hamiltonian matrix: batch-based integration.
  Time summed over all CPUs for integration: real work        0.169 s, elapsed        0.171 s
  Integrating overlap matrix.
  Time summed over all CPUs for integration: real work        0.062 s, elapsed        0.063 s

  Updating Kohn-Sham eigenvalues, eigenvectors, occupation numbers, and Fermi level.
  Solving generalized eigenproblem
  Updating Kohn-Sham eigenvalues and eigenfunctions.
  Transforming overlap matrix and checking for singularities.
  Overlap matrix is nonsingular:
  | Lowest eigenvalue:  0.300404E-03
  Solving real generalised eigenvalue problem by standard LAPACK (fast)
  Determining occupation numbers for Kohn-Sham eigenstates.
  | Chemical potential (Fermi level) in eV                 : -.66191299E+01
  | Error in electron count due to remaining E_F inaccuracy: 0.85265128E-13
  | Maximum occupation number of highest empty state:  0.00E+00

  Writing Kohn-Sham eigenvalues.

  State    Occupation    Eigenvalue [Ha]    Eigenvalue [eV]
      1       2.00000         -18.933001         -515.19318
      2       2.00000         -18.932937         -515.19142
      3       2.00000          -1.180129          -32.11294
      4       2.00000          -0.764466          -20.80219
      5       2.00000          -0.516162          -14.04547
      6       2.00000          -0.480407          -13.07253
      7       2.00000          -0.480407          -13.07253
      8       1.00000          -0.243249           -6.61913
      9       1.00000          -0.243249           -6.61913
     10       0.00000           0.069970            1.90398
     11       0.00000           0.091347            2.48568
     12       0.00000           0.132589            3.60793
     13       0.00000           0.132589            3.60793
     14       0.00000           0.193003            5.25187

  Highest occupied state (VBM) at     -6.61912995 eV
  | Occupation number:      1.00000000

  Lowest unoccupied state (CBM) at    -6.61912995 eV
  | Occupation number:      1.00000000

  Overall HOMO-LUMO gap:      0.00000000 eV.
  Calculating total energy contributions from superposition of free atom densities.

  Total energy components:
  | Sum of eigenvalues            :         -83.06151388 Ha       -2260.21879143 eV
  | XC energy correction          :         -16.75529799 Ha        -455.93485612 eV
  | XC potential correction       :          21.53855628 Ha         586.09393657 eV
  | Free-atom electrostatic energy:         -71.94669129 Ha       -1957.76908015 eV
  | Hartree energy correction     :           0.00000000 Ha           0.00000000 eV
  | Entropy correction            :          -0.00020734 Ha          -0.00564190 eV
  | ---------------------------
  | Total energy                  :        -150.22494688 Ha       -4087.82879113 eV
  | Total energy, T -> 0          :        -150.22515422 Ha       -4087.83443303 eV  <-- do not rely on this value for anything but (periodic) metals
  | Electronic free energy        :        -150.22536156 Ha       -4087.84007492 eV

  Derived energy quantities:
  | Kinetic energy                :         149.70926517 Ha        4073.79637773 eV
  | Electrostatic energy          :        -283.17891406 Ha       -7705.69031274 eV
  | Energy correction for multipole
  | error in Hartree potential    :           0.00000000 Ha           0.00000000 eV
  | Sum of eigenvalues per atom                           :       -1130.10939572 eV
  | Total energy (T->0) per atom                          :       -2043.91721651 eV  <-- do not rely on this value for anything but (periodic) metals
  | Electronic free energy per atom                       :       -2043.92003746 eV
  Initialize hartree_potential_storage
  Max. number of atoms included in rho_multipole:            2

  End scf initialization - timings             :  max(cpu_time)    wall_clock(cpu1)
  | Time for scf. initialization               :        0.130 s           0.129 s
  | Boundary condition initialization          :        0.001 s           0.000 s
  | Integration                                :        0.060 s           0.059 s
  | Solution of K.-S. eqns.                    :        0.008 s           0.008 s
  | Grid partitioning                          :        0.022 s           0.023 s
  | Preloading free-atom quantities on grid    :        0.017 s           0.017 s
  | Free-atom superposition energy             :        0.009 s           0.009 s
  | Total energy evaluation                    :        0.001 s           0.002 s
------------------------------------------------------------

------------------------------------------------------------
          Begin self-consistency iteration #    1

  Date     :  20190722, Time     :  144527.624
------------------------------------------------------------
  Evaluating new KS density.
  Integration grid: deviation in total charge (<rho> - N_e) =   3.907985E-14
  Pulay mixing of updated and previous charge densities.

  Evaluating partitioned Hartree potential by multipole expansion.
  | Analytical far-field extrapolation by fixed multipoles:
  | Hartree multipole sum: apparent total charge =  -0.305629E-07
  Summing up the Hartree potential.
  Time summed over all CPUs for potential: real work        0.096 s, elapsed        0.097 s
  | RMS charge density error from multipole expansion :   0.912883E-04

  Integrating Hamiltonian matrix: batch-based integration.
  Time summed over all CPUs for integration: real work        0.166 s, elapsed        0.168 s

  Updating Kohn-Sham eigenvalues, eigenvectors, occupation numbers, and Fermi level.
  Solving generalized eigenproblem
  Updating Kohn-Sham eigenvalues and eigenfunctions.
  Solving real generalised eigenvalue problem by standard LAPACK (fast)
  Determining occupation numbers for Kohn-Sham eigenstates.
  | Chemical potential (Fermi level) in eV                 : -.64040713E+01
  | Error in electron count due to remaining E_F inaccuracy: -.16578383E-08
  | Maximum occupation number of highest empty state:  0.00E+00

  Writing Kohn-Sham eigenvalues.

  State    Occupation    Eigenvalue [Ha]    Eigenvalue [eV]
      1       2.00000         -18.918504         -514.79869
      2       2.00000         -18.918439         -514.79692
      3       2.00000          -1.179928          -32.10747
      4       2.00000          -0.753392          -20.50085
      5       2.00000          -0.505783          -13.76305
      6       2.00000          -0.475302          -12.93362
      7       2.00000          -0.475302          -12.93362
      8       1.00000          -0.235345           -6.40407
      9       1.00000          -0.235345           -6.40407
     10       0.00000           0.072662            1.97723
     11       0.00000           0.093480            2.54373
     12       0.00000           0.133899            3.64358
     13       0.00000           0.133899            3.64358
     14       0.00000           0.198386            5.39836

  Highest occupied state (VBM) at    -12.93362461 eV
  | Occupation number:      2.00000000

  Lowest unoccupied state (CBM) at    -6.40407130 eV
  | Occupation number:      1.00000000

  Overall HOMO-LUMO gap:      6.52955331 eV.

  Total energy components:
  | Sum of eigenvalues            :         -82.92399046 Ha       -2256.47658871 eV
  | XC energy correction          :         -16.77764457 Ha        -456.54293737 eV
  | XC potential correction       :          21.56765337 Ha         586.88570851 eV
  | Free-atom electrostatic energy:         -71.94669129 Ha       -1957.76908015 eV
  | Hartree energy correction     :          -0.13970777 Ha          -3.80164173 eV
  | Entropy correction            :          -0.00020734 Ha          -0.00564190 eV
  | ---------------------------
  | Total energy                  :        -150.22038072 Ha       -4087.70453945 eV
  | Total energy, T -> 0          :        -150.22058805 Ha       -4087.71018135 eV  <-- do not rely on this value for anything but (periodic) metals
  | Electronic free energy        :        -150.22079539 Ha       -4087.71582324 eV

  Derived energy quantities:
  | Kinetic energy                :         149.81237868 Ha        4076.60223910 eV
  | Electrostatic energy          :        -283.25511483 Ha       -7707.76384118 eV
  | Energy correction for multipole
  | error in Hartree potential    :          -0.00008417 Ha          -0.00229048 eV
  | Sum of eigenvalues per atom                           :       -1128.23829436 eV
  | Total energy (T->0) per atom                          :       -2043.85509067 eV  <-- do not rely on this value for anything but (periodic) metals
  | Electronic free energy per atom                       :       -2043.85791162 eV

  Self-consistency convergence accuracy:
  | Change of charge density      :  0.1696E+00
  | Change of sum of eigenvalues  :  0.3742E+01 eV
  | Change of total energy        :  0.1243E+00 eV

  End self-consistency iteration #     1       :  max(cpu_time)    wall_clock(cpu1)
  | Time for this iteration                    :        0.111 s           0.110 s
  | Charge density update                      :        0.032 s           0.031 s
  | Density mixing                             :        0.002 s           0.001 s
  | Hartree multipole update                   :        0.004 s           0.004 s
  | Hartree multipole summation                :        0.026 s           0.026 s
  | Integration                                :        0.043 s           0.042 s
  | Solution of K.-S. eqns.                    :        0.001 s           0.002 s
  | Total energy evaluation                    :        0.001 s           0.002 s
------------------------------------------------------------

------------------------------------------------------------
          Begin self-consistency iteration #    2

  Date     :  20190722, Time     :  144527.736
------------------------------------------------------------
  Evaluating new KS density.
  Integration grid: deviation in total charge (<rho> - N_e) =  -1.657806E-09
  Pulay mixing of updated and previous charge densities.

  Evaluating partitioned Hartree potential by multipole expansion.
  | Analytical far-field extrapolation by fixed multipoles:
  | Hartree multipole sum: apparent total charge =  -0.156292E-06
  Summing up the Hartree potential.
  Time summed over all CPUs for potential: real work        0.095 s, elapsed        0.096 s
  | RMS charge density error from multipole expansion :   0.362655E-03

  Integrating Hamiltonian matrix: batch-based integration.
  Time summed over all CPUs for integration: real work        0.165 s, elapsed        0.167 s

  Updating Kohn-Sham eigenvalues, eigenvectors, occupation numbers, and Fermi level.
  Solving generalized eigenproblem
  Updating Kohn-Sham eigenvalues and eigenfunctions.
  Solving real generalised eigenvalue problem by standard LAPACK (fast)
  Determining occupation numbers for Kohn-Sham eigenstates.
  | Chemical potential (Fermi level) in eV                 : -.59019899E+01
  | Error in electron count due to remaining E_F inaccuracy: 0.00000000E+00
  | Maximum occupation number of highest empty state:  0.00E+00

  Highest occupied state (VBM) at     -5.90198992 eV
  | Occupation number:      1.00000000

  Lowest unoccupied state (CBM) at    -5.90198992 eV
  | Occupation number:      1.00000000

  Overall HOMO-LUMO gap:      0.00000000 eV.

  Total energy components:
  | Sum of eigenvalues            :         -82.61733928 Ha       -2248.13218539 eV
  | XC energy correction          :         -16.83154424 Ha        -458.00962196 eV
  | XC potential correction       :          21.63773241 Ha         588.79265621 eV
  | Free-atom electrostatic energy:         -71.94669129 Ha       -1957.76908015 eV
  | Hartree energy correction     :          -0.45869108 Ha         -12.48161921 eV
  | Entropy correction            :          -0.00020734 Ha          -0.00564190 eV
  | ---------------------------
  | Total energy                  :        -150.21653347 Ha       -4087.59985050 eV
  | Total energy, T -> 0          :        -150.21674081 Ha       -4087.60549239 eV  <-- do not rely on this value for anything but (periodic) metals
  | Electronic free energy        :        -150.21694814 Ha       -4087.61113429 eV

  Derived energy quantities:
  | Kinetic energy                :         149.98839592 Ha        4081.39191199 eV
  | Electrostatic energy          :        -283.37338516 Ha       -7710.98214053 eV
  | Energy correction for multipole
  | error in Hartree potential    :          -0.00031162 Ha          -0.00847966 eV
  | Sum of eigenvalues per atom                           :       -1124.06609270 eV
  | Total energy (T->0) per atom                          :       -2043.80274620 eV  <-- do not rely on this value for anything but (periodic) metals
  | Electronic free energy per atom                       :       -2043.80556715 eV

  Self-consistency convergence accuracy:
  | Change of charge density      :  0.1251E+00
  | Change of sum of eigenvalues  :  0.8344E+01 eV
  | Change of total energy        :  0.1047E+00 eV

  End self-consistency iteration #     2       :  max(cpu_time)    wall_clock(cpu1)
  | Time for this iteration                    :        0.105 s           0.104 s
  | Charge density update                      :        0.030 s           0.030 s
  | Density mixing                             :        0.002 s           0.001 s
  | Hartree multipole update                   :        0.005 s           0.004 s
  | Hartree multipole summation                :        0.025 s           0.025 s
  | Integration                                :        0.042 s           0.042 s
  | Solution of K.-S. eqns.                    :        0.001 s           0.001 s
  | Total energy evaluation                    :        0.000 s           0.001 s
------------------------------------------------------------

------------------------------------------------------------
          Begin self-consistency iteration #    3

  Date     :  20190722, Time     :  144527.841
------------------------------------------------------------
  Evaluating new KS density.
  Integration grid: deviation in total charge (<rho> - N_e) =   1.705303E-13
  Pulay mixing of updated and previous charge densities.

  Evaluating partitioned Hartree potential by multipole expansion.
  | Analytical far-field extrapolation by fixed multipoles:
  | Hartree multipole sum: apparent total charge =  -0.175168E-06
  Summing up the Hartree potential.
  Time summed over all CPUs for potential: real work        0.096 s, elapsed        0.096 s
  | RMS charge density error from multipole expansion :   0.484413E-03

  Integrating Hamiltonian matrix: batch-based integration.
  Time summed over all CPUs for integration: real work        0.165 s, elapsed        0.166 s

  Updating Kohn-Sham eigenvalues, eigenvectors, occupation numbers, and Fermi level.
  Solving generalized eigenproblem
  Updating Kohn-Sham eigenvalues and eigenfunctions.
  Solving real generalised eigenvalue problem by standard LAPACK (fast)
  Determining occupation numbers for Kohn-Sham eigenstates.
  | Chemical potential (Fermi level) in eV                 : -.60053284E+01
  | Error in electron count due to remaining E_F inaccuracy: -.59587713E-09
  | Maximum occupation number of highest empty state:  0.00E+00

  Highest occupied state (VBM) at     -6.00532844 eV
  | Occupation number:      1.00000000

  Lowest unoccupied state (CBM) at    -6.00532844 eV
  | Occupation number:      1.00000000

  Overall HOMO-LUMO gap:      0.00000000 eV.

  Total energy components:
  | Sum of eigenvalues            :         -82.72088096 Ha       -2250.94969789 eV
  | XC energy correction          :         -16.81734574 Ha        -457.62326110 eV
  | XC potential correction       :          21.61912136 Ha         588.28622382 eV
  | Free-atom electrostatic energy:         -71.94669129 Ha       -1957.76908015 eV
  | Hartree energy correction     :          -0.35065097 Ha          -9.54169839 eV
  | Entropy correction            :          -0.00020734 Ha          -0.00564190 eV
  | ---------------------------
  | Total energy                  :        -150.21644759 Ha       -4087.59751370 eV
  | Total energy, T -> 0          :        -150.21665493 Ha       -4087.60315560 eV  <-- do not rely on this value for anything but (periodic) metals
  | Electronic free energy        :        -150.21686227 Ha       -4087.60879749 eV

  Derived energy quantities:
  | Kinetic energy                :         149.79297804 Ha        4076.07432084 eV
  | Electrostatic energy          :        -283.19207990 Ha       -7706.04857344 eV
  | Energy correction for multipole
  | error in Hartree potential    :          -0.00035743 Ha          -0.00972608 eV
  | Sum of eigenvalues per atom                           :       -1125.47484894 eV
  | Total energy (T->0) per atom                          :       -2043.80157780 eV  <-- do not rely on this value for anything but (periodic) metals
  | Electronic free energy per atom                       :       -2043.80439875 eV

  Self-consistency convergence accuracy:
  | Change of charge density      :  0.2837E-01
  | Change of sum of eigenvalues  : -0.2818E+01 eV
  | Change of total energy        :  0.2337E-02 eV

  End self-consistency iteration #     3       :  max(cpu_time)    wall_clock(cpu1)
  | Time for this iteration                    :        0.104 s           0.104 s
  | Charge density update                      :        0.030 s           0.030 s
  | Density mixing                             :        0.002 s           0.002 s
  | Hartree multipole update                   :        0.004 s           0.004 s
  | Hartree multipole summation                :        0.025 s           0.024 s
  | Integration                                :        0.042 s           0.042 s
  | Solution of K.-S. eqns.                    :        0.001 s           0.001 s
  | Total energy evaluation                    :        0.000 s           0.000 s
------------------------------------------------------------

------------------------------------------------------------
          Begin self-consistency iteration #    4

  Date     :  20190722, Time     :  144527.947
------------------------------------------------------------
  Evaluating new KS density.
  Integration grid: deviation in total charge (<rho> - N_e) =  -5.961276E-10
  Pulay mixing of updated and previous charge densities.

  Evaluating partitioned Hartree potential by multipole expansion.
  | Analytical far-field extrapolation by fixed multipoles:
  | Hartree multipole sum: apparent total charge =  -0.176022E-06
  Summing up the Hartree potential.
  Time summed over all CPUs for potential: real work        0.096 s, elapsed        0.097 s
  | RMS charge density error from multipole expansion :   0.499340E-03

  Integrating Hamiltonian matrix: batch-based integration.
  Time summed over all CPUs for integration: real work        0.165 s, elapsed        0.166 s

  Updating Kohn-Sham eigenvalues, eigenvectors, occupation numbers, and Fermi level.
  Solving generalized eigenproblem
  Updating Kohn-Sham eigenvalues and eigenfunctions.
  Solving real generalised eigenvalue problem by standard LAPACK (fast)
  Determining occupation numbers for Kohn-Sham eigenstates.
  | Chemical potential (Fermi level) in eV                 : -.59492159E+01
  | Error in electron count due to remaining E_F inaccuracy: 0.00000000E+00
  | Maximum occupation number of highest empty state:  0.00E+00

  Highest occupied state (VBM) at     -5.94921585 eV
  | Occupation number:      1.00000009

  Lowest unoccupied state (CBM) at    -5.94921585 eV
  | Occupation number:      0.99999991

  Overall HOMO-LUMO gap:      0.00000000 eV.

  Total energy components:
  | Sum of eigenvalues            :         -82.67950565 Ha       -2249.82381841 eV
  | XC energy correction          :         -16.82249433 Ha        -457.76336134 eV
  | XC potential correction       :          21.62583082 Ha         588.46879758 eV
  | Free-atom electrostatic energy:         -71.94669129 Ha       -1957.76908015 eV
  | Hartree energy correction     :          -0.39357918 Ha         -10.70983428 eV
  | Entropy correction            :          -0.00020734 Ha          -0.00564190 eV
  | ---------------------------
  | Total energy                  :        -150.21643962 Ha       -4087.59729660 eV
  | Total energy, T -> 0          :        -150.21664695 Ha       -4087.60293850 eV  <-- do not rely on this value for anything but (periodic) metals
  | Electronic free energy        :        -150.21685429 Ha       -4087.60858039 eV

  Derived energy quantities:
  | Kinetic energy                :         149.82483100 Ha        4076.94108387 eV
  | Electrostatic energy          :        -283.21877629 Ha       -7706.77501914 eV
  | Energy correction for multipole
  | error in Hartree potential    :          -0.00037616 Ha          -0.01023575 eV
  | Sum of eigenvalues per atom                           :       -1124.91190920 eV
  | Total energy (T->0) per atom                          :       -2043.80146925 eV  <-- do not rely on this value for anything but (periodic) metals
  | Electronic free energy per atom                       :       -2043.80429020 eV

  Self-consistency convergence accuracy:
  | Change of charge density      :  0.4639E-02
  | Change of sum of eigenvalues  :  0.1126E+01 eV
  | Change of total energy        :  0.2171E-03 eV

  End self-consistency iteration #     4       :  max(cpu_time)    wall_clock(cpu1)
  | Time for this iteration                    :        0.104 s           0.104 s
  | Charge density update                      :        0.030 s           0.030 s
  | Density mixing                             :        0.001 s           0.001 s
  | Hartree multipole update                   :        0.004 s           0.004 s
  | Hartree multipole summation                :        0.025 s           0.025 s
  | Integration                                :        0.042 s           0.042 s
  | Solution of K.-S. eqns.                    :        0.001 s           0.001 s
  | Total energy evaluation                    :        0.000 s           0.001 s
------------------------------------------------------------

------------------------------------------------------------
          Begin self-consistency iteration #    5

  Date     :  20190722, Time     :  144528.052
------------------------------------------------------------
  Evaluating new KS density.
  Integration grid: deviation in total charge (<rho> - N_e) =  -2.309264E-13
  Pulay mixing of updated and previous charge densities.

  Evaluating partitioned Hartree potential by multipole expansion.
  | Analytical far-field extrapolation by fixed multipoles:
  | Hartree multipole sum: apparent total charge =  -0.174290E-06
  Summing up the Hartree potential.
  Time summed over all CPUs for potential: real work        0.096 s, elapsed        0.096 s
  | RMS charge density error from multipole expansion :   0.497669E-03

  Integrating Hamiltonian matrix: batch-based integration.
  Time summed over all CPUs for integration: real work        0.165 s, elapsed        0.166 s

  Updating Kohn-Sham eigenvalues, eigenvectors, occupation numbers, and Fermi level.
  Solving generalized eigenproblem
  Updating Kohn-Sham eigenvalues and eigenfunctions.
  Solving real generalised eigenvalue problem by standard LAPACK (fast)
  Determining occupation numbers for Kohn-Sham eigenstates.
  | Chemical potential (Fermi level) in eV                 : -.59649010E+01
  | Error in electron count due to remaining E_F inaccuracy: 0.74297262E-08
  | Maximum occupation number of highest empty state:  0.00E+00

  Highest occupied state (VBM) at     -5.96490099 eV
  | Occupation number:      1.00000097

  Lowest unoccupied state (CBM) at    -5.96490098 eV
  | Occupation number:      0.99999904

  Overall HOMO-LUMO gap:      0.00000002 eV.

  Total energy components:
  | Sum of eigenvalues            :         -82.69060023 Ha       -2250.12571727 eV
  | XC energy correction          :         -16.82077241 Ha        -457.71650556 eV
  | XC potential correction       :          21.62358597 Ha         588.40771219 eV
  | Free-atom electrostatic energy:         -71.94669129 Ha       -1957.76908015 eV
  | Hartree energy correction     :          -0.38195865 Ha         -10.39362365 eV
  | Entropy correction            :          -0.00020734 Ha          -0.00564190 eV
  | ---------------------------
  | Total energy                  :        -150.21643660 Ha       -4087.59721444 eV
  | Total energy, T -> 0          :        -150.21664393 Ha       -4087.60285634 eV  <-- do not rely on this value for anything but (periodic) metals
  | Electronic free energy        :        -150.21685127 Ha       -4087.60849824 eV

  Derived energy quantities:
  | Kinetic energy                :         149.81458888 Ha        4076.66238167 eV
  | Electrostatic energy          :        -283.21025307 Ha       -7706.54309055 eV
  | Energy correction for multipole
  | error in Hartree potential    :          -0.00037278 Ha          -0.01014389 eV
  | Sum of eigenvalues per atom                           :       -1125.06285864 eV
  | Total energy (T->0) per atom                          :       -2043.80142817 eV  <-- do not rely on this value for anything but (periodic) metals
  | Electronic free energy per atom                       :       -2043.80424912 eV

  Self-consistency convergence accuracy:
  | Change of charge density      :  0.2477E-02
  | Change of sum of eigenvalues  : -0.3019E+00 eV
  | Change of total energy        :  0.8216E-04 eV

  End self-consistency iteration #     5       :  max(cpu_time)    wall_clock(cpu1)
  | Time for this iteration                    :        0.104 s           0.104 s
  | Charge density update                      :        0.030 s           0.030 s
  | Density mixing                             :        0.002 s           0.002 s
  | Hartree multipole update                   :        0.004 s           0.004 s
  | Hartree multipole summation                :        0.025 s           0.024 s
  | Integration                                :        0.042 s           0.042 s
  | Solution of K.-S. eqns.                    :        0.001 s           0.001 s
  | Total energy evaluation                    :        0.001 s           0.000 s
------------------------------------------------------------

------------------------------------------------------------
          Begin self-consistency iteration #    6

  Date     :  20190722, Time     :  144528.158
------------------------------------------------------------
  Evaluating new KS density.
  Integration grid: deviation in total charge (<rho> - N_e) =   7.429819E-09
  Pulay mixing of updated and previous charge densities.

  Evaluating partitioned Hartree potential by multipole expansion.
  | Analytical far-field extrapolation by fixed multipoles:
  | Hartree multipole sum: apparent total charge =  -0.179303E-06
  Summing up the Hartree potential.
  Time summed over all CPUs for potential: real work        0.097 s, elapsed        0.097 s
  | RMS charge density error from multipole expansion :   0.497812E-03

  Integrating Hamiltonian matrix: batch-based integration.
  Time summed over all CPUs for integration: real work        0.165 s, elapsed        0.166 s

  Updating Kohn-Sham eigenvalues, eigenvectors, occupation numbers, and Fermi level.
  Solving generalized eigenproblem
  Updating Kohn-Sham eigenvalues and eigenfunctions.
  Solving real generalised eigenvalue problem by standard LAPACK (fast)
  Determining occupation numbers for Kohn-Sham eigenstates.
  | Chemical potential (Fermi level) in eV                 : -.59678270E+01
  | Error in electron count due to remaining E_F inaccuracy: 0.43449688E-11
  | Maximum occupation number of highest empty state:  0.00E+00

  Highest occupied state (VBM) at     -5.96782748 eV
  | Occupation number:      1.00005435

  Lowest unoccupied state (CBM) at    -5.96782652 eV
  | Occupation number:      0.99994565

  Overall HOMO-LUMO gap:      0.00000096 eV.

  Total energy components:
  | Sum of eigenvalues            :         -82.69211064 Ha       -2250.16681786 eV
  | XC energy correction          :         -16.82066833 Ha        -457.71367349 eV
  | XC potential correction       :          21.62344140 Ha         588.40377805 eV
  | Free-atom electrostatic energy:         -71.94669129 Ha       -1957.76908015 eV
  | Hartree energy correction     :          -0.38040767 Ha         -10.35141931 eV
  | Entropy correction            :          -0.00020734 Ha          -0.00564190 eV
  | ---------------------------
  | Total energy                  :        -150.21643653 Ha       -4087.59721276 eV
  | Total energy, T -> 0          :        -150.21664387 Ha       -4087.60285465 eV  <-- do not rely on this value for anything but (periodic) metals
  | Electronic free energy        :        -150.21685121 Ha       -4087.60849655 eV

  Derived energy quantities:
  | Kinetic energy                :         149.81587486 Ha        4076.69737506 eV
  | Electrostatic energy          :        -283.21164307 Ha       -7706.58091432 eV
  | Energy correction for multipole
  | error in Hartree potential    :          -0.00037343 Ha          -0.01016150 eV
  | Sum of eigenvalues per atom                           :       -1125.08340893 eV
  | Total energy (T->0) per atom                          :       -2043.80142733 eV  <-- do not rely on this value for anything but (periodic) metals
  | Electronic free energy per atom                       :       -2043.80424827 eV

  Self-consistency convergence accuracy:
  | Change of charge density      :  0.3657E-03
  | Change of sum of eigenvalues  : -0.4110E-01 eV
  | Change of total energy        :  0.1688E-05 eV

  End self-consistency iteration #     6       :  max(cpu_time)    wall_clock(cpu1)
  | Time for this iteration                    :        0.106 s           0.105 s
  | Charge density update                      :        0.031 s           0.030 s
  | Density mixing                             :        0.003 s           0.002 s
  | Hartree multipole update                   :        0.004 s           0.004 s
  | Hartree multipole summation                :        0.025 s           0.025 s
  | Integration                                :        0.042 s           0.042 s
  | Solution of K.-S. eqns.                    :        0.001 s           0.001 s
  | Total energy evaluation                    :        0.000 s           0.001 s
------------------------------------------------------------

------------------------------------------------------------
          Begin self-consistency iteration #    7

  Date     :  20190722, Time     :  144528.264
------------------------------------------------------------
  Evaluating new KS density.
  Integration grid: deviation in total charge (<rho> - N_e) =   4.643397E-12
  Pulay mixing of updated and previous charge densities.

  Evaluating partitioned Hartree potential by multipole expansion.
  | Analytical far-field extrapolation by fixed multipoles:
  | Hartree multipole sum: apparent total charge =  -0.179098E-06
  Summing up the Hartree potential.
  Time summed over all CPUs for potential: real work        0.096 s, elapsed        0.096 s
  | RMS charge density error from multipole expansion :   0.497812E-03

  Integrating Hamiltonian matrix: batch-based integration.
  Time summed over all CPUs for integration: real work        0.168 s, elapsed        0.169 s

  Updating Kohn-Sham eigenvalues, eigenvectors, occupation numbers, and Fermi level.
  Solving generalized eigenproblem
  Updating Kohn-Sham eigenvalues and eigenfunctions.
  Solving real generalised eigenvalue problem by standard LAPACK (fast)
  Determining occupation numbers for Kohn-Sham eigenstates.
  | Chemical potential (Fermi level) in eV                 : -.59678351E+01
  | Error in electron count due to remaining E_F inaccuracy: 0.42597037E-11
  | Maximum occupation number of highest empty state:  0.00E+00

  Highest occupied state (VBM) at     -5.96783554 eV
  | Occupation number:      1.00004612

  Lowest unoccupied state (CBM) at    -5.96783472 eV
  | Occupation number:      0.99995388

  Overall HOMO-LUMO gap:      0.00000082 eV.

  Total energy components:
  | Sum of eigenvalues            :         -82.69211620 Ha       -2250.16696901 eV
  | XC energy correction          :         -16.82066775 Ha        -457.71365770 eV
  | XC potential correction       :          21.62344063 Ha         588.40375713 eV
  | Free-atom electrostatic energy:         -71.94669129 Ha       -1957.76908015 eV
  | Hartree energy correction     :          -0.38040192 Ha         -10.35126303 eV
  | Entropy correction            :          -0.00020734 Ha          -0.00564190 eV
  | ---------------------------
  | Total energy                  :        -150.21643653 Ha       -4087.59721276 eV
  | Total energy, T -> 0          :        -150.21664387 Ha       -4087.60285465 eV  <-- do not rely on this value for anything but (periodic) metals
  | Electronic free energy        :        -150.21685121 Ha       -4087.60849655 eV

  Derived energy quantities:
  | Kinetic energy                :         149.81587444 Ha        4076.69736360 eV
  | Electrostatic energy          :        -283.21164322 Ha       -7706.58091866 eV
  | Energy correction for multipole
  | error in Hartree potential    :          -0.00037343 Ha          -0.01016148 eV
  | Sum of eigenvalues per atom                           :       -1125.08348451 eV
  | Total energy (T->0) per atom                          :       -2043.80142733 eV  <-- do not rely on this value for anything but (periodic) metals
  | Electronic free energy per atom                       :       -2043.80424827 eV

  Self-consistency convergence accuracy:
  | Change of charge density      :  0.2145E-04
  | Change of sum of eigenvalues  : -0.1512E-03 eV
  | Change of total energy        :  0.3759E-09 eV

  Electronic self-consistency reached - switching on the force computation.

  End self-consistency iteration #     7       :  max(cpu_time)    wall_clock(cpu1)
  | Time for this iteration                    :        0.105 s           0.105 s
  | Charge density & force component update    :        0.030 s           0.030 s
  | Density mixing                             :        0.003 s           0.003 s
  | Hartree multipole update                   :        0.004 s           0.003 s
  | Hartree multipole summation                :        0.025 s           0.025 s
  | Integration                                :        0.042 s           0.042 s
  | Solution of K.-S. eqns.                    :        0.001 s           0.001 s
  | Total energy evaluation                    :        0.000 s           0.000 s
------------------------------------------------------------

------------------------------------------------------------
          Begin self-consistency iteration #    8

  Date     :  20190722, Time     :  144528.371
------------------------------------------------------------
  Evaluating new KS density.
  Integration grid: deviation in total charge (<rho> - N_e) =   4.966694E-12
  Pulay mixing of updated and previous charge densities.

  Evaluating partitioned Hartree potential by multipole expansion.
  | Analytical far-field extrapolation by fixed multipoles:
  | Hartree multipole sum: apparent total charge =  -0.173379E-06
  Summing up the Hartree potential.
  Time summed over all CPUs for potential: real work        0.267 s, elapsed        0.271 s
  | RMS charge density error from multipole expansion :   0.497826E-03

  Integrating Hamiltonian matrix: batch-based integration.
  Time summed over all CPUs for integration: real work        0.169 s, elapsed        0.171 s

  Updating Kohn-Sham eigenvalues, eigenvectors, occupation numbers, and Fermi level.
  Solving generalized eigenproblem
  Updating Kohn-Sham eigenvalues and eigenfunctions.
  Solving real generalised eigenvalue problem by standard LAPACK (fast)
  Determining occupation numbers for Kohn-Sham eigenstates.
  | Chemical potential (Fermi level) in eV                 : -.59680496E+01
  | Error in electron count due to remaining E_F inaccuracy: 0.36664005E-11
  | Maximum occupation number of highest empty state:  0.00E+00

  Highest occupied state (VBM) at     -5.96804967 eV
  | Occupation number:      1.00000320

  Lowest unoccupied state (CBM) at    -5.96804961 eV
  | Occupation number:      0.99999680

  Overall HOMO-LUMO gap:      0.00000006 eV.

  Total energy components:
  | Sum of eigenvalues            :         -82.69226253 Ha       -2250.17095093 eV
  | XC energy correction          :         -16.82065260 Ha        -457.71324555 eV
  | XC potential correction       :          21.62342055 Ha         588.40321078 eV
  | Free-atom electrostatic energy:         -71.94669129 Ha       -1957.76908015 eV
  | Hartree energy correction     :          -0.38025066 Ha         -10.34714690 eV
  | Entropy correction            :          -0.00020734 Ha          -0.00564190 eV
  | ---------------------------
  | Total energy                  :        -150.21643653 Ha       -4087.59721275 eV
  | Total energy, T -> 0          :        -150.21664387 Ha       -4087.60285465 eV  <-- do not rely on this value for anything but (periodic) metals
  | Electronic free energy        :        -150.21685121 Ha       -4087.60849654 eV

  Derived energy quantities:
  | Kinetic energy                :         149.81586807 Ha        4076.69719014 eV
  | Electrostatic energy          :        -283.21165200 Ha       -7706.58115734 eV
  | Energy correction for multipole
  | error in Hartree potential    :          -0.00037342 Ha          -0.01016120 eV
  | Sum of eigenvalues per atom                           :       -1125.08547547 eV
  | Total energy (T->0) per atom                          :       -2043.80142732 eV  <-- do not rely on this value for anything but (periodic) metals
  | Electronic free energy per atom                       :       -2043.80424827 eV

  atomic forces [eV/Ang]:
  -----------------------
  atom #    1
   Hellmann-Feynman              :  0.823648E-10 -0.844108E-11 -0.154835E+02
   Ionic forces                  :  0.000000E+00  0.000000E+00  0.000000E+00
   Multipole                     : -0.462654E-13  0.109239E-12  0.243338E-01
   Pulay + GGA                   :  0.000000E+00  0.000000E+00  0.000000E+00
   ----------------------------------------------------------------
   Total forces(   1)            :  0.823185E-10 -0.833185E-11 -0.154592E+02
  atom #    2
   Hellmann-Feynman              : -0.162854E-10 -0.666802E-10  0.154835E+02
   Ionic forces                  :  0.000000E+00  0.000000E+00  0.000000E+00
   Multipole                     :  0.566300E-14  0.179812E-12 -0.243338E-01
   Pulay + GGA                   :  0.000000E+00  0.000000E+00  0.000000E+00
   ----------------------------------------------------------------
   Total forces(   2)            : -0.162798E-10 -0.665004E-10  0.154592E+02


  Self-consistency convergence accuracy:
  | Change of charge density      :  0.1913E-04
  | Change of sum of eigenvalues  : -0.3982E-02 eV
  | Change of total energy        :  0.4418E-08 eV
  | Change of forces              :  0.1546E+02 eV/A

  End self-consistency iteration #     8       :  max(cpu_time)    wall_clock(cpu1)
  | Time for this iteration                    :        0.155 s           0.157 s
  | Charge density & force component update    :        0.029 s           0.029 s
  | Density mixing                             :        0.003 s           0.003 s
  | Hartree multipole update                   :        0.005 s           0.004 s
  | Hartree multipole summation                :        0.068 s           0.070 s
  | Integration                                :        0.044 s           0.043 s
  | Solution of K.-S. eqns.                    :        0.005 s           0.005 s
  | Total energy evaluation                    :        0.002 s           0.001 s
------------------------------------------------------------

------------------------------------------------------------
          Begin self-consistency iteration #    9

  Date     :  20190722, Time     :  144528.529
------------------------------------------------------------
  Evaluating new KS density and force components.
  Integration grid: deviation in total charge (<rho> - N_e) =   3.367973E-12
  Pulay mixing of updated and previous charge densities.

  Evaluating partitioned Hartree potential by multipole expansion.
  | Analytical far-field extrapolation by fixed multipoles:
  | Hartree multipole sum: apparent total charge =  -0.172762E-06
  Summing up the Hartree potential.
  Time summed over all CPUs for potential: real work        0.255 s, elapsed        0.257 s
  | RMS charge density error from multipole expansion :   0.497855E-03

  Integrating Hamiltonian matrix: batch-based integration.
  Time summed over all CPUs for integration: real work        0.165 s, elapsed        0.166 s

  Updating Kohn-Sham eigenvalues, eigenvectors, occupation numbers, and Fermi level.
  Solving generalized eigenproblem
  Updating Kohn-Sham eigenvalues and eigenfunctions.
  Solving real generalised eigenvalue problem by standard LAPACK (fast)
  Determining occupation numbers for Kohn-Sham eigenstates.
  | Chemical potential (Fermi level) in eV                 : -.59679397E+01
  | Error in electron count due to remaining E_F inaccuracy: 0.45190518E-11
  | Maximum occupation number of highest empty state:  0.00E+00

  Highest occupied state (VBM) at     -5.96793970 eV
  | Occupation number:      1.00000000

  Lowest unoccupied state (CBM) at    -5.96793970 eV
  | Occupation number:      1.00000000

  Overall HOMO-LUMO gap:      0.00000000 eV.

  Total energy components:
  | Sum of eigenvalues            :         -82.69217991 Ha       -2250.16870255 eV
  | XC energy correction          :         -16.82066349 Ha        -457.71354177 eV
  | XC potential correction       :          21.62343471 Ha         588.40359612 eV
  | Free-atom electrostatic energy:         -71.94669129 Ha       -1957.76908015 eV
  | Hartree energy correction     :          -0.38033656 Ha         -10.34948440 eV
  | Entropy correction            :          -0.00020734 Ha          -0.00564190 eV
  | ---------------------------
  | Total energy                  :        -150.21643653 Ha       -4087.59721275 eV
  | Total energy, T -> 0          :        -150.21664387 Ha       -4087.60285464 eV  <-- do not rely on this value for anything but (periodic) metals
  | Electronic free energy        :        -150.21685121 Ha       -4087.60849654 eV

  Derived energy quantities:
  | Kinetic energy                :         149.81594643 Ha        4076.69932262 eV
  | Electrostatic energy          :        -283.21171948 Ha       -7706.58299360 eV
  | Energy correction for multipole
  | error in Hartree potential    :          -0.00037346 Ha          -0.01016223 eV
  | Sum of eigenvalues per atom                           :       -1125.08435127 eV
  | Total energy (T->0) per atom                          :       -2043.80142732 eV  <-- do not rely on this value for anything but (periodic) metals
  | Electronic free energy per atom                       :       -2043.80424827 eV

  atomic forces [eV/Ang]:
  -----------------------
  atom #    1
   Hellmann-Feynman              :  0.342822E-10 -0.225521E-10 -0.154798E+02
   Ionic forces                  :  0.000000E+00  0.000000E+00  0.000000E+00
   Multipole                     : -0.152216E-12  0.100675E-12  0.243369E-01
   Pulay + GGA                   : -0.128224E-10  0.165739E-11  0.156286E+02
   ----------------------------------------------------------------
   Total forces(   1)            :  0.213075E-10 -0.207941E-10  0.173098E+00
  atom #    2
   Hellmann-Feynman              : -0.349439E-10 -0.381717E-10  0.154798E+02
   Ionic forces                  :  0.000000E+00  0.000000E+00  0.000000E+00
   Multipole                     : -0.141245E-12  0.838321E-13 -0.243369E-01
   Pulay + GGA                   :  0.273175E-11  0.177478E-10 -0.156286E+02
   ----------------------------------------------------------------
   Total forces(   2)            : -0.323534E-10 -0.203401E-10 -0.173098E+00


  Self-consistency convergence accuracy:
  | Change of charge density      :  0.1125E-04
  | Change of sum of eigenvalues  :  0.2248E-02 eV
  | Change of total energy        :  0.3054E-08 eV
  | Change of forces              :  0.3696E-02 eV/A

  End self-consistency iteration #     9       :  max(cpu_time)    wall_clock(cpu1)
  | Time for this iteration                    :        0.218 s           0.218 s
  | Charge density & force component update    :        0.101 s           0.101 s
  | Density mixing                             :        0.004 s           0.004 s
  | Hartree multipole update                   :        0.004 s           0.004 s
  | Hartree multipole summation                :        0.065 s           0.065 s
  | Integration                                :        0.042 s           0.042 s
  | Solution of K.-S. eqns.                    :        0.001 s           0.001 s
  | Total energy evaluation                    :        0.001 s           0.001 s
------------------------------------------------------------

------------------------------------------------------------
          Begin self-consistency iteration #   10

  Date     :  20190722, Time     :  144528.749
------------------------------------------------------------
  Evaluating new KS density and force components.
  Integration grid: deviation in total charge (<rho> - N_e) =   4.806822E-12
  Pulay mixing of updated and previous charge densities.

  Evaluating partitioned Hartree potential by multipole expansion.
  | Analytical far-field extrapolation by fixed multipoles:
  | Hartree multipole sum: apparent total charge =  -0.172404E-06
  Summing up the Hartree potential.
  Time summed over all CPUs for potential: real work        0.255 s, elapsed        0.257 s
  | RMS charge density error from multipole expansion :   0.497857E-03

  Integrating Hamiltonian matrix: batch-based integration.
  Time summed over all CPUs for integration: real work        0.166 s, elapsed        0.168 s

  Updating Kohn-Sham eigenvalues, eigenvectors, occupation numbers, and Fermi level.
  Solving generalized eigenproblem
  Updating Kohn-Sham eigenvalues and eigenfunctions.
  Solving real generalised eigenvalue problem by standard LAPACK (fast)
  Determining occupation numbers for Kohn-Sham eigenstates.
  | Chemical potential (Fermi level) in eV                 : -.59679462E+01
  | Error in electron count due to remaining E_F inaccuracy: 0.45154991E-11
  | Maximum occupation number of highest empty state:  0.00E+00

  Highest occupied state (VBM) at     -5.96794619 eV
  | Occupation number:      1.00000003

  Lowest unoccupied state (CBM) at    -5.96794619 eV
  | Occupation number:      0.99999997

  Overall HOMO-LUMO gap:      0.00000000 eV.

  Total energy components:
  | Sum of eigenvalues            :         -82.69218466 Ha       -2250.16883197 eV
  | XC energy correction          :         -16.82066287 Ha        -457.71352490 eV
  | XC potential correction       :          21.62343390 Ha         588.40357400 eV
  | Free-atom electrostatic energy:         -71.94669129 Ha       -1957.76908015 eV
  | Hartree energy correction     :          -0.38033161 Ha         -10.34934973 eV
  | Entropy correction            :          -0.00020734 Ha          -0.00564190 eV
  | ---------------------------
  | Total energy                  :        -150.21643653 Ha       -4087.59721275 eV
  | Total energy, T -> 0          :        -150.21664387 Ha       -4087.60285465 eV  <-- do not rely on this value for anything but (periodic) metals
  | Electronic free energy        :        -150.21685121 Ha       -4087.60849654 eV

  Derived energy quantities:
  | Kinetic energy                :         149.81594196 Ha        4076.69920077 eV
  | Electrostatic energy          :        -283.21171562 Ha       -7706.58288862 eV
  | Energy correction for multipole
  | error in Hartree potential    :          -0.00037346 Ha          -0.01016224 eV
  | Sum of eigenvalues per atom                           :       -1125.08441598 eV
  | Total energy (T->0) per atom                          :       -2043.80142732 eV  <-- do not rely on this value for anything but (periodic) metals
  | Electronic free energy per atom                       :       -2043.80424827 eV

  atomic forces [eV/Ang]:
  -----------------------
  atom #    1
   Hellmann-Feynman              :  0.590007E-10 -0.664910E-11 -0.154799E+02
   Ionic forces                  :  0.000000E+00  0.000000E+00  0.000000E+00
   Multipole                     : -0.511933E-13  0.125454E-12  0.243371E-01
   Pulay + GGA                   : -0.556913E-11  0.244256E-11  0.156286E+02
   ----------------------------------------------------------------
   Total forces(   1)            :  0.533804E-10 -0.408109E-11  0.173068E+00
  atom #    2
   Hellmann-Feynman              : -0.122094E-10 -0.467345E-10  0.154799E+02
   Ionic forces                  :  0.000000E+00  0.000000E+00  0.000000E+00
   Multipole                     : -0.998356E-13  0.859576E-13 -0.243371E-01
   Pulay + GGA                   :  0.794550E-11  0.107786E-10 -0.156286E+02
   ----------------------------------------------------------------
   Total forces(   2)            : -0.436376E-11 -0.358699E-10 -0.173068E+00


  Self-consistency convergence accuracy:
  | Change of charge density      :  0.7686E-06
  | Change of sum of eigenvalues  : -0.1294E-03 eV
  | Change of total energy        : -0.5824E-09 eV
  | Change of forces              :  0.6768E-04 eV/A

  Writing Kohn-Sham eigenvalues.

  State    Occupation    Eigenvalue [Ha]    Eigenvalue [eV]
      1       2.00000         -18.899239         -514.27446
      2       2.00000         -18.899173         -514.27267
      3       2.00000          -1.182482          -32.17696
      4       2.00000          -0.730397          -19.87511
      5       2.00000          -0.484866          -13.19388
      6       2.00000          -0.465308          -12.66169
      7       2.00000          -0.465308          -12.66169
      8       1.00000          -0.219318           -5.96795
      9       1.00000          -0.219318           -5.96795
     10       0.00000           0.078293            2.13045
     11       0.00000           0.098994            2.69375
     12       0.00000           0.137589            3.74400
     13       0.00000           0.137589            3.74400
     14       0.00000           0.208630            5.67710

  Highest occupied state (VBM) at     -5.96794619 eV
  | Occupation number:      1.00000003

  Lowest unoccupied state (CBM) at    -5.96794619 eV
  | Occupation number:      0.99999997

  Overall HOMO-LUMO gap:      0.00000000 eV.

  Self-consistency cycle converged.

  End self-consistency iteration #    10       :  max(cpu_time)    wall_clock(cpu1)
  | Time for this iteration                    :        0.216 s           0.216 s
  | Charge density & force component update    :        0.100 s           0.099 s
  | Density mixing                             :        0.003 s           0.003 s
  | Hartree multipole update                   :        0.004 s           0.003 s
  | Hartree multipole summation                :        0.065 s           0.065 s
  | Integration                                :        0.043 s           0.043 s
  | Solution of K.-S. eqns.                    :        0.001 s           0.001 s
  | Total energy evaluation                    :        0.001 s           0.001 s
------------------------------------------------------------
  Writing cluster restart information to file restart
  ------------------------------------------------------------
   Computing monopole / dipole moments for complete molecule:
  | Total electronic charge [e]         :          0.160000000000061E+02
  | Total ionic charge [e]              :          0.160000000000000E+02
  | Total charge [e]                    :         -0.610000938650046E-11
  | Total dipole moment [eAng]          :         -0.516490089298716E-13         0.656903718011803E-14        -0.359834892527999E-11
  | Absolute dipole moment              :          0.359872557448280E-11 eAng              /                   0.172827216891484E-10 Debye  .
  Removing unitary transformations (pure translations, rotations) from forces on atoms.
  Atomic forces before filtering:
  | Net force on center of mass :   0.490166E-10 -0.399510E-10 -0.341519E-10 eV/A
  | Net torque on center of mass:   0.194258E-10 -0.352868E-10  0.000000E+00 eV
  Atomic forces after filtering:
  | Net force on center of mass :   0.103846E-25 -0.103846E-25  0.000000E+00 eV/A
  | Net torque on center of mass:  -0.610100E-42 -0.610100E-42  0.000000E+00 eV

  Energy and forces in a compact form:
  | Total energy uncorrected      :         -0.408759721274958E+04 eV
  | Total energy corrected        :         -0.408760285464529E+04 eV  <-- do not rely on this value for anything but (periodic) metals
  | Electronic free energy        :         -0.408760849654100E+04 eV
  Total atomic forces (unitary forces cleaned) [eV/Ang]:
  |   1          0.519230158900898E-26         -0.519230158900898E-26          0.173068186064893E+00
  |   2          0.519230158900898E-26         -0.519230158900898E-26         -0.173068186064893E+00

  ------------------------------------ 
  Start decomposition of the XC Energy 
  ------------------------------------ 
  Hartree-Fock part   :          0.000000000 Ha              0.000000000 eV
  ------------------------------------ 
  X Energy            :        -16.287183598 Ha           -443.196815315 eV
  C Energy GGA        :         -0.533479272 Ha            -14.516709588 eV
  Total XC Energy     :        -16.820662870 Ha           -457.713524903 eV
  LDA X and C from self-consistent density 
  X Energy LDA        :        -14.785806257 Ha           -402.342259194 eV
  C Energy LDA        :         -1.111658176 Ha            -30.249758065 eV
  ------------------------------------ 
  End decomposition of the XC Energy 
  ------------------------------------ 

------------------------------------------------------------------------------
  Final output of selected total energy values:

  The following output summarizes some interesting total energy values
  at the end of a run (AFTER all relaxation, molecular dynamics, etc.).

  | Total energy of the DFT / Hartree-Fock s.c.f. calculation      :          -4087.597212750 eV
  | Final zero-broadening corrected energy (caution - metals only) :          -4087.602854645 eV
  | For reference only, the value of 1 Hartree used in FHI-aims is :             27.211384500 eV

  Before relying on these values, please be sure to understand exactly which
  total energy value is referred to by a given number. Different objects may
  all carry the same name 'total energy'. Definitions:

  Total energy of the DFT / Hartree-Fock s.c.f. calculation:
  | Note that this energy does not include ANY quantities calculated after the
  | s.c.f. cycle, in particular not ANY RPA, MP2, etc. many-body perturbation terms.

  Final zero-broadening corrected energy:
  | For metallic systems only, a broadening of the occupation numbers at the Fermi
  | level can be extrapolated back to zero broadening by an electron-gas inspired
  | formula. For all systems that are not real metals, this value can be
  | meaningless and should be avoided.

------------------------------------------------------------------------------
  Methods described in the following list of references were used in this FHI-aims run.
  If you publish the results, please make sure to cite these reference if they apply.
  FHI-aims is an academic code, and for our developers (often, Ph.D. students
  and postdocs), scientific credit in the community is essential.
  Thank you for helping us!

  For any use of FHI-aims, please cite:

    Volker Blum, Ralf Gehrke, Felix Hanke, Paula Havu, Ville Havu,
    Xinguo Ren, Karsten Reuter, and Matthias Scheffler
    'Ab initio molecular simulations with numeric atom-centered orbitals'
    Computer Physics Communications 180, 2175-2196 (2009)
    http://dx.doi.org/10.1016/j.cpc.2009.06.022


  For the real-space grid partitioning and parallelization used in this calculation, please cite:

    Ville Havu, Volker Blum, Paula Havu, and Matthias Scheffler,
    'Efficient O(N) integration for all-electron electronic structure calculation'
    'using numerically tabulated basis functions'
    Journal of Computational Physics 228, 8367-8379 (2009).
    http://dx.doi.org/10.1016/j.jcp.2009.08.008

  Of course, there are many other important community references, e.g., those cited in the
  above references. Our list is limited to references that describe implementations in the
  FHI-aims code. The reason is purely practical (length of this list) - please credit others as well.

------------------------------------------------------------
          Leaving FHI-aims.
          Date     :  20190722, Time     :  144529.003

          Computational steps:
          | Number of self-consistency cycles          :           10

          Detailed time accounting                     :  max(cpu_time)    wall_clock(cpu1)
          | Total time                                 :        1.667 s           1.679 s
          | Preparation time                           :        0.144 s           0.157 s
          | Grid partitioning                          :        0.022 s           0.023 s
          | Preloading free-atom quantities on grid    :        0.017 s           0.017 s
          | Free-atom superposition energy             :        0.009 s           0.009 s
          | Total time for integrations                :        0.484 s           0.481 s
          | Total time for solution of K.-S. equations :        0.022 s           0.023 s
          | Total time for density & force components  :        0.443 s           0.440 s
          | Total time for mixing                      :        0.025 s           0.022 s
          | Total time for Hartree multipole update    :        0.042 s           0.038 s
          | Total time for Hartree multipole sum       :        0.374 s           0.374 s
          | Total time for total energy evaluation     :        0.007 s           0.010 s

          Have a nice day.
------------------------------------------------------------
