  MPI-parallelism will be employed.
------------------------------------------------------------
          Invoking FHI-aims ...
          Version 171221_1
          Compiled on 2019/05/20 at 10:34:17 on host taito-login3.csc.fi.

          When using FHI-aims, please cite the following reference:

          Volker Blum, Ralf Gehrke, Felix Hanke, Paula Havu,
          Ville Havu, Xinguo Ren, Karsten Reuter, and Matthias Scheffler,
          'Ab Initio Molecular Simulations with Numeric Atom-Centered Orbitals',
          Computer Physics Communications 180, 2175-2196 (2009)

          For any questions about FHI-aims, please visit the aimsclub website
          with its forums and wiki. Contributions to both the forums and the
          wiki are warmly encouraged - they are for you, and everyone is welcome there.

------------------------------------------------------------



  Date     :  20190722, Time     :  145304.062
  Time zero on CPU 1             :   0.100983000000000E+00  s.
  Internal wall clock time zero  :           333039184.062  s.

  FHI-aims created a unique identifier for this run for later identification
  aims_uuid : 5255757A-5A79-453B-A965-593DB35627C0

  Using        8 parallel tasks.
  Task        0 on host c874 reporting.
  Task        1 on host c874 reporting.
  Task        2 on host c874 reporting.
  Task        3 on host c874 reporting.
  Task        4 on host c874 reporting.
  Task        5 on host c874 reporting.
  Task        6 on host c874 reporting.
  Task        7 on host c874 reporting.

  Performing system and environment tests:
  *** Environment variable OMP_NUM_THREADS is not set
  *** For performance reasons you might want to set it to 1
  | Maximum stacksize for task 0: unlimited
  | Maximum stacksize for task 1: unlimited
  | Maximum stacksize for task 2: unlimited
  | Maximum stacksize for task 3: unlimited
  | Maximum stacksize for task 4: unlimited
  | Maximum stacksize for task 5: unlimited
  | Maximum stacksize for task 6: unlimited
  | Maximum stacksize for task 7: unlimited
  | Current stacksize for task 0: 1024 [Mb]
  | Current stacksize for task 1: 1024 [Mb]
  | Current stacksize for task 2: 1024 [Mb]
  | Current stacksize for task 3: 1024 [Mb]
  | Current stacksize for task 4: 1024 [Mb]
  | Current stacksize for task 5: 1024 [Mb]
  | Current stacksize for task 6: 1024 [Mb]
  | Current stacksize for task 7: 1024 [Mb]
  | Checking for scalapack...
  | Testing pdtran()...
  | All pdtran() tests passed.

  Obtaining array dimensions for all initial allocations:
  
  -----------------------------------------------------------------------
  Parsing control.in (first pass over file, find array dimensions only).
  The contents of control.in will be repeated verbatim below
  unless switched off by setting 'verbatim_writeout .false.' .
  in the first line of control.in .
  -----------------------------------------------------------------------
  
    #  Physical model settings
    #
  
    xc                            pbe
    charge                        0.0
    relativistic                  none
  #  default_initial_moment        0.0
    spin                          none
  
    #  SCF convergence settings
    #
  
    sc_accuracy_rho               1E-4
    sc_accuracy_eev               1E-2
    sc_accuracy_etot              1E-8
    sc_iter_limit                 100
  
    #  GW
    #
  
    qpe_calc                   gw
    anacon_type                two-pole
    neutral_excitation         bse
    read_write_qpe             wr
    bse_s_t                    singlet
    calculate_all_eigenstates
  
  ################################################################################
  #
  #  FHI-aims code project
  #  VB, Fritz-Haber Institut, 2007
  #
  #  Suggested "safe" defaults for O atom (to be pasted into control.in file)
  #
  ################################################################################
    species        O
  #     global species definitions
      nucleus             8
      mass                15.9994
  #
      l_hartree           8
  #
      cut_pot             4.0  2.0  1.0
      basis_dep_cutoff    0.d0
  #
      radial_base         36 7.0
      radial_multiplier   2
       angular_grids specified
        division   0.4087  110
        division   0.5181  194
        division   0.6184  302
        division   0.7315  434
        division   0.7934  590
  #      division   0.9656  770
  #      division   1.4041  974
  #      outer_grid 974
        outer_grid 590
  ################################################################################
  #
  #  Definition of "minimal" basis
  #
  ################################################################################
  #     valence basis states
      valence      2  s   2.
      valence      2  p   4.
  #     ion occupancy
      ion_occ      2  s   1.
      ion_occ      2  p   3.
  ################################################################################
  #
  #  Suggested additional basis functions. For production calculations,
  #  uncomment them one after another (the most important basis functions are
  #  listed first).
  #
  #  Constructed for dimers: 1.0 A, 1.208 A, 1.5 A, 2.0 A, 3.0 A
  #
  ################################################################################
  #  "First tier" - improvements: -699.05 meV to -159.38 meV
       hydro 2 p 1.8
       hydro 3 d 7.6
       hydro 3 s 6.4
  #  "Second tier" - improvements: -49.91 meV to -5.39 meV
       hydro 4 f 11.6
       hydro 3 p 6.2
       hydro 3 d 5.6
       hydro 5 g 17.6
       hydro 1 s 0.75
  #  "Third tier" - improvements: -2.83 meV to -0.50 meV
  #     ionic 2 p auto
  #     hydro 4 f 10.8
  #     hydro 4 d 4.7
  #     hydro 2 s 6.8
  #  "Fourth tier" - improvements: -0.40 meV to -0.12 meV
  #     hydro 3 p 5
  #     hydro 3 s 3.3
  #     hydro 5 g 15.6
  #     hydro 4 f 17.6
  #     hydro 4 d 14
  # Further basis functions - -0.08 meV and below
  #     hydro 3 s 2.1
  #     hydro 4 d 11.6
  #     hydro 3 p 16
  #     hydro 2 s 17.2
  
  -----------------------------------------------------------------------
  Completed first pass over input file control.in .
  -----------------------------------------------------------------------
  
  
  -----------------------------------------------------------------------
  Parsing geometry.in (first pass over file, find array dimensions only).
  The contents of geometry.in will be repeated verbatim below
  unless switched off by setting 'verbatim_writeout .false.' .
  in the first line of geometry.in .
  -----------------------------------------------------------------------
  
  #
  # This is the geometry file that corresponds to the current relaxation step.
  # If you do not want this file to be written, set the "write_restart_geometry" flag to .false.
  #
  atom      -0.00000000      0.00000000     -0.00608953 O
  atom      -0.00000000     -0.00000000      1.21358953 O
  #
  # What follows is the current estimated Hessian matrix constructed by the BFGS algorithm.
  # This is NOT the true Hessian matrix of the system.
  # If you do not want this information here, switch it off using the "hessian_to_restart_geometry" keyword.
  #
  trust_radius             0.2000000030
  hessian_block                1       1           2.000000          -0.000000           0.000000          -0.000000           2.00000
  hessian_block                1       2           0.000000           0.000000           0.000000          -0.000000          -0.00000
  hessian_block                2       2           2.000000          -0.000000          -0.000000          -0.000000           2.00000
  
  -----------------------------------------------------------------------
  Completed first pass over input file geometry.in .
  -----------------------------------------------------------------------
  

  Basic array size parameters:
  | Number of species                 :        1
  | Number of atoms                   :        2
  | Max. basis fn. angular momentum   :        4
  | Max. atomic/ionic basis occupied n:        2
  | Max. number of basis fn. types    :        2
  | Max. radial fns per species/type  :        8
  | Max. logarithmic grid size        :     1301
  | Max. radial integration grid size :       73
  | Max. angular integration grid size:      590
  | Max. angular grid division number :        8
  | Radial grid for Hartree potential :     1301
  | Number of spin channels           :        1

------------------------------------------------------------
          Reading file control.in.
------------------------------------------------------------
  XC: Using PBE gradient-corrected functionals.
  Charge =   0.000000E+00: Neutral system requested explicitly.
  Non-relativistic treatment of kinetic energy.
  Spin treatment: No spin polarisation.
  Convergence accuracy of self-consistent charge density:  0.1000E-03
  Convergence accuracy of sum of eigenvalues:  0.1000E-01
  Convergence accuracy of total energy:  0.1000E-07
  Maximum number of s.-c. iterations  :   100
  GW quasiparticle calculation of excited states will be started after the DFT/HF calculation.
  Using two-pole fitting for analytical continuation.
  Calculation of optical excitation energies with BSE will be done.
  write and read qpe from file energy_qp
  calculating BSE singlet states
  Calculating all eigenstates for the basis set (i.e. includes all empty states.)
 
  Reading configuration options for species O                   .
  | Found nuclear charge :   8.0000
  | Found atomic mass :    15.9994000000000      amu
  | Found l_max for Hartree potential  :   8
  | Found cutoff potl. onset [A], width [A], scale factor :    4.00000    2.00000    1.00000
  | Threshold for basis-dependent cutoff potential is   0.000000E+00
  | Found data for basic radial integration grid :    36 points, outermost radius =    7.000 A
  | Found multiplier for basic radial grid :   2
  | Found angular grid specification: user-specified.
  | Specified grid contains     6 separate shells.
  | Check grid settings after all constraints further below.
  | Found free-atom valence shell :  2 s   2.000
  | Found free-atom valence shell :  2 p   4.000
  | No ionic wave fns used. Skipping ion_occ.
  | No ionic wave fns used. Skipping ion_occ.
  | Found hydrogenic basis function :  2 p   1.800
  | Found hydrogenic basis function :  3 d   7.600
  | Found hydrogenic basis function :  3 s   6.400
  | Found hydrogenic basis function :  4 f  11.600
  | Found hydrogenic basis function :  3 p   6.200
  | Found hydrogenic basis function :  3 d   5.600
  | Found hydrogenic basis function :  5 g  17.600
  | Found hydrogenic basis function :  1 s   0.750
  Species O                   : Missing cutoff potential type.
  Defaulting to exp(1/x)/(1-x)^2 type cutoff potential.
  Species O : No 'logarithmic' tag. Using default grid for free atom:
  | Default logarithmic grid data [bohr] : 0.1000E-03 0.1000E+03 0.1012E+01
  Species O : On-site basis accuracy parameter (for Gram-Schmidt orthonormalisation) not specified.
  Using default value basis_acc =  0.1000000E-03.
  Species O                   : Using default innermost maximum threshold i_radial=  2 for radial functions.
  Species O                   : Default cutoff onset for free atom density etc. is infinite
  since the product basis is used (hybrid functionals, Hartree-Fock, GW etc.).
  Species O                   : Basic radial grid will be enhanced according to radial_multiplier =   2, to contain    73 grid points.
 
  Finished reading input file 'control.in'. Consistency checks are next.
 
  MPI_IN_PLACE appears to work with this MPI implementation.
  | Keeping use_mpi_in_place .true. (see manual).
  Explicit treatment of the Coulomb operator is needed, but the RI method is not specified.
  Coulomb operator: Defaulting to 'RI-V' resolution of identity - RI_type = V 
  Species O: Using default value for prodbas_acc =   1.000000E-02.
  Species O: Using default value max_l_prodbas =     5.
 * Species O: Specified min. number of angular integration points is   110
 * The angular momenta for this species require   194 for RI_type 'V'. Increasing angular_min to   194.
 * Species O: Grid shell     1 contains only   110 angular integration points.
 * Increasing to angular_min =   194 integration points.
 * This change is related to the three-center integrals used in RI_method 'V'.
  Target number of points in a grid batch is not set. Defaulting to  100
  Method for grid partitioning is not set. Defaulting to parallel hash+maxmin partitioning.
  Batch size limit is not set. Defaulting to    200
  By default, will store active basis functions for each batch.
  If in need of memory, prune_basis_once .false. can be used to disable this option.
  communication_type for Hartree potential was not specified.
  Defaulting to calc_hartree .
  Defaulting to Pulay charge density mixer.
  Pulay mixer: Number of relevant iterations not set.
  Defaulting to    8 iterations.
  Pulay mixer: Number of initial linear mixing iterations not set.
  Defaulting to    0 iterations.
  Work space size for distributed Hartree potential not set.
  Defaulting to   0.200000E+03 MB.
  Mixing parameter for charge density mixing has not been set.
  Using default: charge_mix_param =     0.0500.
  The mixing parameter will be adjusted in iteration number     2 of the first full s.c.f. cycle only.
  Algorithm-dependent basis array size parameters:
  | n_max_pulay                         :        8
  Presetting      1001 iterations before the initial mixing cycle
  is restarted anyway using the sc_init_iter criterion / keyword.
  Presetting a factor      1.000 between actual scf density residual
  and density convergence criterion sc_accuracy_rho below which sc_init_iter
  takes no effect.
  Calculation of forces was not defined in control.in. No forces will be calculated.
  Geometry relaxation not requested: no relaxation will be performed.
  No accuracy limit for integral partition fn. given. Defaulting to  0.1000E-14.
  No threshold value for u(r) in integrations given. Defaulting to  0.1000E-05.
  No occupation type (smearing scheme) given. Defaulting to Gaussian broadening, width =  0.1000E-01 eV.
  The width will be adjusted in iteration number     2 of the first full s.c.f. cycle only.
  S.C.F. convergence parameters will be adjusted in iteration number     2 of the first full s.c.f. cycle only.
  No accuracy for occupation numbers given. Defaulting to  0.1000E-12.
  No threshold value for occupation numbers given. Defaulting to  0.0000E+00.
  No accuracy for fermi level given. Defaulting to  0.1000E-19.
  Maximum # of iterations to find E_F not set. Defaulting to  200.
  Preferred method for the eigenvalue solver ('KS_method') not specified in 'control.in'.
  Calling BLACS routine to test compilation state
  Since ScaLAPACK support is enabled, defaulting to 'elsi'.
  Will not use alltoall communication since running on < 1024 CPUs.
  Threshold for basis singularities not set.
  Default threshold for basis singularities:  0.1000E-04
  partition_type (choice of integration weights) for integrals was not specified.
  | Using a version of the partition function of Stratmann and coworkers ('stratmann_smoother').
  | At each grid point, the set of atoms used to build the partition table is smoothly restricted to
  | only those atoms whose free-atom density would be non-zero at that grid point.
  Partitioning for Hartree potential was not defined. Using partition_type for integrals.
  | Adjusted default value of keyword multip_moments_threshold to:       0.10000000E-11
  | This value may affect high angular momentum components of the Hartree potential in periodic systems.
  Threshold for auxiliary basis singularities not set.
  Default threshold for auxiliary basis singularities:  0.1000E-04
  No q(lm)/r^(l+1) cutoff set for long-range Hartree potential.
  | Using default value of  0.100000E-09 .
  | Verify using the multipole_threshold keyword.
  Defaulting to new monopole extrapolation.
  Density update method: automatic selection selected.
  Default to 1D ("use_logsbt") integrations for auxiliary 2-center integrals.
  Default onset of logarithmic r-grid for SBT is-38.000000000000
  Default onset of logarithmic k-grid for SBT is-25.000000000000
  Default range of logarithmic r- and k-grid for SBT is 45.000000000000
  Default number of logarithmic r- and k-grid for SBT is  4096
  Default of use_2d_corr is to use the efficient 2D distribution where possible
------------------------------------------------------------


------------------------------------------------------------
          Reading geometry description geometry.in.
------------------------------------------------------------
 * Large trust radius value found - resetting to the current value of max_atomic_move,      0.20000000 A.
  Input structure read successfully.
  The structure contains        2 atoms,  and a total of         16.000 electrons.

  Input geometry:
  | No unit cell requested.
  | Atomic structure:
  |       Atom                x [A]            y [A]            z [A]
  |    1: Species O             0.00000000        0.00000000       -0.00608953
  |    2: Species O             0.00000000        0.00000000        1.21358953
  |

  | The smallest distance between any two atoms is         1.21967906 AA.
  |
  | The first atom of this pair is atom number                      1 .
  | The second atom of this pair is atom number                     2 .

  Number of empty states per atom not set in control.in .
  | Since you are using a method that relies on the unoccupied spectrum
  | (MP2,GW,RPA et al.), will use the full Hamiltonian size (see below)
  | as the max. possible number of states (occupied plus empty).

  Structure-dependent array size parameters: 
  | Maximum number of distinct radial functions  :       11
  | Maximum number of basis functions            :       78
  | Number of Kohn-Sham states (occupied + empty):       78
------------------------------------------------------------

------------------------------------------------------------
          Preparing all fixed parts of the calculation.
------------------------------------------------------------
  Determining machine precision:
    2.225073858507201E-308
  Setting up grids for atomic and cluster calculations.

  Creating wave function, potential, and density for free atoms.

  Species: O

  List of occupied orbitals and eigenvalues:
    n    l              occ      energy [Ha]    energy [eV]
    1    0           2.0000       -18.898644      -514.2583
    2    0           2.0000        -0.878848       -23.9147
    2    1           4.0000        -0.332128        -9.0377

  Creating fixed part of basis set: Ionic, confined, hydrogenic.
 
  O                    hydrogenic:
 
  List of hydrogenic basis orbitals: 
    n    l      effective z      eigenvalue [eV]  inner max. [A]     outer max. [A]     outer radius [A]   
    2    1         1.800000       -11.0118           1.178562           1.178562           5.432602
    3    2         7.600000       -87.3183           0.624125           0.624125           4.634338
    3    0         6.400000       -61.9210           0.061167           1.081902           5.110480
    4    3        11.600000      -114.4239           0.731631           0.731631           4.522403
    3    1         6.200000       -58.1114           0.255680           1.030270           5.110480
    3    2         5.600000       -47.4083           0.847233           0.847233           5.173339
    5    4        17.600000      -168.5800           0.749740           0.749740           4.051222
    1    0         0.750000        -7.6499           0.705284           0.705284           5.366593
 

  Adding cutoff potential to free-atom effective potential.
  Creating atomic-like basis functions for current effective potential.

  Species O                   :

  List of atomic basis orbitals and eigenvalues:
    n    l      energy [Ha]    energy [eV]    outer radius [A]
    1    0       -18.898644      -514.2583       1.415765
    2    0        -0.878848       -23.9147       5.048385
    2    1        -0.332125        -9.0376       5.301386

  Assembling full basis from fixed parts.
  | Species O :   atomic orbital   1 s accepted.
  | Species O :   atomic orbital   2 s accepted.
  | Species O :    hydro orbital   3 s accepted.
  | Species O :    hydro orbital   1 s accepted.
  | Species O :   atomic orbital   2 p accepted.
  | Species O :    hydro orbital   2 p accepted.
  | Species O :    hydro orbital   3 p accepted.
  | Species O :    hydro orbital   3 d accepted.
  | Species O :    hydro orbital   3 d accepted.
  | Species O :    hydro orbital   4 f accepted.
  | Species O :    hydro orbital   5 g accepted.
 
  Basis size parameters after reduction:
  | Total number of radial functions:       11
  | Total number of basis functions :       78
 
  Per-task memory consumption for arrays in subroutine allocate_ext:
  |           2.750028MB.
  Testing on-site integration grid accuracy.
  |  Species  Function  <phi|h_atom|phi> (log., in eV)  <phi|h_atom|phi> (rad., in eV)
           1        1               -514.2582716877               -514.2582672188
           1        2                -23.9146660848                -23.9146660179
           1        3                 17.5388323151                 17.5388081820
           1        4                 14.5194240916                 14.5194698176
           1        5                 -9.0376100143                 -9.0376102249
           1        6                  7.9045967111                  7.9045926641
           1        7                 33.4187688545                 33.4187638495
           1        8                 45.8219149787                 45.8219150219
           1        9                 52.1928737223                 52.1928735172
           1       10                 85.4051169735                 85.4051170005
           1       11                142.0964096396                142.0964096648

  Preparing densities etc. for the partition functions (integrals / Hartree potential).

  Preparations completed.
  max(cpu_time)          :      0.129 s.
  Wall clock time (cpu1) :      0.145 s.
------------------------------------------------------------

------------------------------------------------------------
          Begin self-consistency loop: Initialization.

          Date     :  20190722, Time     :  145304.371
------------------------------------------------------------

  Initializing index lists of integration centers etc. from given atomic structure:
  | Number of centers in hartree potential         :         2
  | Number of centers in hartree multipole         :         2
  | Number of centers in electron density summation:         2
  | Number of centers in basis integrals           :         2
  | Number of centers in integrals                 :         2
  | Number of centers in hamiltonian               :         2
  * Using 8 tasks for Scalapack Eigenvalue solver.
  Detailed listing of tasks and assigned k-points:
  (for non-periodic systems, the "k-point" denotes an internal label only)
   Task     0 k-point     1 on c874
   Task     1 k-point     1 on c874
   Task     2 k-point     1 on c874
   Task     3 k-point     1 on c874
   Task     4 k-point     1 on c874
   Task     5 k-point     1 on c874
   Task     6 k-point     1 on c874
   Task     7 k-point     1 on c874
  Tasks:     8 split into      4 X      2 BLACS grid
  Calculating block size based on n_basis =           78 max_nprow =            4 max_npcol =            2
  ScaLAPACK block size set to:           16
  Allocating        0.011 MB for ovlp
  Allocating        0.011 MB for ham
  Allocating        0.011 MB for eigenvec
  Required Scalapack workspace - INTEGER:            1 REAL:             1
  Partitioning the integration grid into batches with parallel hashing+maxmin method.
  | Number of batches:      928
  | Maximal batch size:     129
  | Minimal batch size:      49
  | Average batch size:      62.642
  | Standard deviation of batch sizes:      15.247

  Integration load balanced across     8 MPI tasks.
  Work distribution over tasks is as follows:
  Task     0 has       7312 integration points.
  Task     1 has       7236 integration points.
  Task     2 has       7240 integration points.
  Task     3 has       7237 integration points.
  Task     4 has       7224 integration points.
  Task     5 has       7300 integration points.
  Task     6 has       7286 integration points.
  Task     7 has       7297 integration points.
  Initializing partition tables, free-atom densities, potentials, etc. across the integration grid (initialize_grid_storage).
  | Species        1: outer_partition_radius set to             11.592603489656513 AA .
  | Original list of interatomic distances with           2 x          2 entries is created.
  | Net number of integration points:    58132
  | of which are non-zero points    :    54584
  Renormalizing the initial density to the exact electron count on the 3D integration grid.
  | Initial density: Formal number of electrons (from input files) :      16.0000000000
  | Integrated number of electrons on 3D grid     :      15.9999999947
  | Charge integration error                      :      -0.0000000053
  | Normalization factor for density and gradient :       1.0000000003
  Obtaining max. number of non-zero basis functions in each batch (get_n_compute_maxes).
  | Maximal number of non-zero basis functions:       78 in task     0
  | Maximal number of non-zero basis functions:       78 in task     1
  | Maximal number of non-zero basis functions:       78 in task     2
  | Maximal number of non-zero basis functions:       78 in task     3
  | Maximal number of non-zero basis functions:       78 in task     4
  | Maximal number of non-zero basis functions:       78 in task     5
  | Maximal number of non-zero basis functions:       78 in task     6
  | Maximal number of non-zero basis functions:       78 in task     7
  Selecting the method for density update.
  Loop over occupied states selected for charge density update.
  Allocating        0.049 MB for KS_eigenvector
  Integrating Hamiltonian matrix: batch-based integration.
  Time summed over all CPUs for integration: real work        0.224 s, elapsed        0.233 s
  Integrating overlap matrix.
  Time summed over all CPUs for integration: real work        0.081 s, elapsed        0.082 s
  Deallocating overlap matrix.

  Updating Kohn-Sham eigenvalues and eigenvectors using ELSI and the ELPA eigensolver.
  ELPA settings:
  | ELPA solver          1
  | Time full => band           :     0.008 s
  | Time band => tridiagonal    :     0.006 s
  | Time solve tridiagonal      :     0.007 s
  Overlap matrix is nonsingular
  | Lowest eigenvalue of overlap  :  0.30E-03
  | Highest eigenvalue of overlap :  0.20E+01
  Finished singularity check of overlap matrix
  | Time :     0.025 s
  Finished Cholesky decomposition
  | Time :     0.029 s
  Finished transformation to standard eigenproblem
  | Time :     0.002 s
  Starting ELPA eigensolver
  | Time full => tridiagonal    :     0.002 s
  | Time solve tridiagonal      :     0.001 s
  | Time ev tridiagonal => full :     0.001 s
  Finished solving standard eigenproblem
  | Time :     0.004 s
  Finished back-transformation of eigenvectors
  | Time :     0.001 s

  Obtaining occupation numbers and chemical potential using ELSI.
  | Chemical potential (Fermi level):    -6.60822091eV
  Writing Kohn-Sham eigenvalues.

  State    Occupation    Eigenvalue [Ha]    Eigenvalue [eV]
      1       2.00000         -18.933496         -515.20664
      2       2.00000         -18.933429         -515.20483
      3       2.00000          -1.182387          -32.17440
      4       2.00000          -0.764146          -20.79347
      5       2.00000          -0.516864          -14.06459
      6       2.00000          -0.481502          -13.10235
      7       2.00000          -0.481502          -13.10235
      8       1.00000          -0.242848           -6.60822
      9       1.00000          -0.242848           -6.60822
     10       0.00000           0.070984            1.93158
     11       0.00000           0.091262            2.48336
     12       0.00000           0.132423            3.60342
     13       0.00000           0.132423            3.60342
     14       0.00000           0.194921            5.30408
     15       0.00000           0.204488            5.56440
     16       0.00000           0.245495            6.68025
     17       0.00000           0.245495            6.68025
     18       0.00000           0.559849           15.23428
     19       0.00000           0.559849           15.23428
     20       0.00000           0.791459           21.53670
     21       0.00000           0.791459           21.53670
     22       0.00000           0.908365           24.71787
     23       0.00000           0.908779           24.72913
     24       0.00000           0.932994           25.38805
     25       0.00000           0.932994           25.38805
     26       0.00000           1.134263           30.86486
     27       0.00000           1.158679           31.52926
     28       0.00000           1.162477           31.63260
     29       0.00000           1.162477           31.63260
     30       0.00000           1.279064           34.80511
     31       0.00000           1.279064           34.80511
     32       0.00000           1.871522           50.92672
     33       0.00000           1.871522           50.92672
     34       0.00000           1.956019           53.22598
     35       0.00000           2.483654           67.58365
     36       0.00000           2.483654           67.58365
     37       0.00000           2.556960           69.57842
     38       0.00000           2.556960           69.57843
     39       0.00000           2.766282           75.27436
     40       0.00000           2.827573           76.94218
     41       0.00000           2.827573           76.94218
     42       0.00000           2.976953           81.00701
     43       0.00000           2.976953           81.00701
     44       0.00000           3.075679           83.69349
     45       0.00000           3.126086           85.06512
     46       0.00000           3.126086           85.06514
     47       0.00000           3.380283           91.98217
     48       0.00000           3.380283           91.98217
     49       0.00000           3.615731           98.38905
     50       0.00000           3.615731           98.38905
     51       0.00000           3.687618          100.34520
     52       0.00000           3.819419          103.93168
     53       0.00000           3.819419          103.93168
     54       0.00000           4.087576          111.22861
     55       0.00000           4.087576          111.22861
     56       0.00000           4.718934          128.40874
     57       0.00000           4.810575          130.90240
     58       0.00000           4.810575          130.90240
     59       0.00000           4.929109          134.12787
     60       0.00000           4.929109          134.12789
     61       0.00000           5.220515          142.05745
     62       0.00000           5.220515          142.05745
     63       0.00000           5.497214          149.58681
     64       0.00000           5.497214          149.58681
     65       0.00000           5.508523          149.89454
     66       0.00000           5.508524          149.89456
     67       0.00000           6.115961          166.42377
     68       0.00000           6.115961          166.42377
     69       0.00000           6.289412          171.14362
     70       0.00000           6.484288          176.44645
     71       0.00000           6.484288          176.44645
     72       0.00000           6.928149          188.52453
     73       0.00000           7.721928          210.12436
     74       0.00000           7.750422          210.89971
     75       0.00000           7.750422          210.89972
     76       0.00000           8.133896          221.33456
     77       0.00000           8.133896          221.33456
     78       0.00000          15.787201          429.59160

  Highest occupied state (VBM) at     -6.60822091 eV
  | Occupation number:      1.00000000

  Lowest unoccupied state (CBM) at    -6.60822091 eV
  | Occupation number:      1.00000000

  Overall HOMO-LUMO gap:      0.00000000 eV.
  This system has fractional occupation numbers. Thus, it is a degenerate system
  within the approximate finite broadening function (occupation_type)
  applied to determine the occupation numbers.
  This may not be harmful. However, for some systems (free atoms), a different, non-degenerate
  ground state might exist by using a smaller broadening (see keyword occupation_type).
  Calculating total energy contributions from superposition of free atom densities.

  Total energy components:
  | Sum of eigenvalues            :         -83.07235085 Ha       -2260.51368022 eV
  | XC energy correction          :         -16.75664285 Ha        -455.97145151 eV
  | XC potential correction       :          21.54038753 Ha         586.14376727 eV
  | Free-atom electrostatic energy:         -71.93640542 Ha       -1957.48918734 eV
  | Hartree energy correction     :           0.00000000 Ha           0.00000000 eV
  | Entropy correction            :          -0.00020734 Ha          -0.00564190 eV
  | ---------------------------
  | Total energy                  :        -150.22501159 Ha       -4087.83055180 eV
  | Total energy, T -> 0          :        -150.22521892 Ha       -4087.83619370 eV  <-- do not rely on this value for anything but (periodic) metals
  | Electronic free energy        :        -150.22542626 Ha       -4087.84183560 eV

  Derived energy quantities:
  | Kinetic energy                :         149.71333572 Ha        4073.90714300 eV
  | Electrostatic energy          :        -283.18170446 Ha       -7705.76624329 eV
  | Energy correction for multipole
  | error in Hartree potential    :           0.00000000 Ha           0.00000000 eV
  | Sum of eigenvalues per atom                           :       -1130.25684011 eV
  | Total energy (T->0) per atom                          :       -2043.91809685 eV  <-- do not rely on this value for anything but (periodic) metals
  | Electronic free energy per atom                       :       -2043.92091780 eV
  Initialize hartree_potential_storage
  Max. number of atoms included in rho_multipole:            2

  End scf initialization - timings             :  max(cpu_time)    wall_clock(cpu1)
  | Time for scf. initialization               :        0.147 s           0.196 s
  | Boundary condition initialization          :        0.002 s           0.003 s
  | Integration                                :        0.038 s           0.044 s
  | Solution of K.-S. eqns.                    :        0.051 s           0.068 s
  | Grid partitioning                          :        0.019 s           0.023 s
  | Preloading free-atom quantities on grid    :        0.020 s           0.021 s
  | Free-atom superposition energy             :        0.006 s           0.006 s
  | Total energy evaluation                    :        0.001 s           0.002 s

  Partial memory accounting:
  | Current value for overall tracked memory usage on task 0  :           0.107 MB
  | Peak value for overall tracked memory usage on task 0     :           0.424 MB after allocating wave
  | Largest tracked array allocation on task 0 so far         :           0.080 MB  when allocating H_times_psi
  Note:  These values currently only include a subset of arrays which are explicitly tracked.
  The "true" memory usage will be greater.
------------------------------------------------------------

------------------------------------------------------------
          Begin self-consistency iteration #    1

  Date     :  20190722, Time     :  145304.569
------------------------------------------------------------
  Evaluating new KS density.
  Integration grid: deviation in total charge (<rho> - N_e) =  -9.947598E-14
  Pulay mixing of updated and previous charge densities.

  Evaluating partitioned Hartree potential by multipole expansion.
  | Analytical far-field extrapolation by fixed multipoles:
  | Hartree multipole sum: apparent total charge =  -0.574854E-07
  Summing up the Hartree potential.
  Time summed over all CPUs for potential: real work        0.117 s, elapsed        0.122 s
  | RMS charge density error from multipole expansion :   0.229281E-04

  Integrating Hamiltonian matrix: batch-based integration.
  Time summed over all CPUs for integration: real work        0.183 s, elapsed        0.199 s

  Updating Kohn-Sham eigenvalues and eigenvectors using ELSI and the ELPA eigensolver.
  ELPA settings:
  | ELPA solver          1
  Finished transformation to standard eigenproblem
  | Time :     0.000 s
  Starting ELPA eigensolver
  | Time full => tridiagonal    :     0.001 s
  | Time solve tridiagonal      :     0.000 s
  | Time ev tridiagonal => full :     0.000 s
  Finished solving standard eigenproblem
  | Time :     0.002 s
  Finished back-transformation of eigenvectors
  | Time :     0.000 s

  Obtaining occupation numbers and chemical potential using ELSI.
  | Chemical potential (Fermi level):    -6.55347648eV
  Writing Kohn-Sham eigenvalues.

  State    Occupation    Eigenvalue [Ha]    Eigenvalue [eV]
      1       2.00000         -18.929795         -515.10593
      2       2.00000         -18.929728         -515.10411
      3       2.00000          -1.182293          -32.17182
      4       2.00000          -0.761334          -20.71696
      5       2.00000          -0.514232          -13.99297
      6       2.00000          -0.480192          -13.06670
      7       2.00000          -0.480192          -13.06670
      8       1.00000          -0.240836           -6.55348
      9       1.00000          -0.240836           -6.55348
     10       0.00000           0.071667            1.95016
     11       0.00000           0.091797            2.49794
     12       0.00000           0.132753            3.61238
     13       0.00000           0.132753            3.61238
     14       0.00000           0.196298            5.34153
     15       0.00000           0.204888            5.57530
     16       0.00000           0.245940            6.69237
     17       0.00000           0.245940            6.69237
     18       0.00000           0.560217           15.24429
     19       0.00000           0.560218           15.24429
     20       0.00000           0.792359           21.56119
     21       0.00000           0.792359           21.56119
     22       0.00000           0.909298           24.74327
     23       0.00000           0.909314           24.74368
     24       0.00000           0.933720           25.40783
     25       0.00000           0.933721           25.40783
     26       0.00000           1.136551           30.92712
     27       0.00000           1.160814           31.58735
     28       0.00000           1.163896           31.67122
     29       0.00000           1.163896           31.67122
     30       0.00000           1.280450           34.84282
     31       0.00000           1.280450           34.84282
     32       0.00000           1.872731           50.95961
     33       0.00000           1.872731           50.95961
     34       0.00000           1.956889           53.24965
     35       0.00000           2.484173           67.59778
     36       0.00000           2.484173           67.59778
     37       0.00000           2.557234           69.58589
     38       0.00000           2.557235           69.58589
     39       0.00000           2.767276           75.30142
     40       0.00000           2.828245           76.96046
     41       0.00000           2.828245           76.96046
     42       0.00000           2.979098           81.06539
     43       0.00000           2.979098           81.06539
     44       0.00000           3.076988           83.72909
     45       0.00000           3.127674           85.10835
     46       0.00000           3.127675           85.10836
     47       0.00000           3.381640           92.01911
     48       0.00000           3.381640           92.01911
     49       0.00000           3.617802           98.44541
     50       0.00000           3.617802           98.44541
     51       0.00000           3.690220          100.41599
     52       0.00000           3.821909          103.99945
     53       0.00000           3.821909          103.99945
     54       0.00000           4.089664          111.28542
     55       0.00000           4.089664          111.28542
     56       0.00000           4.720847          128.46078
     57       0.00000           4.811670          130.93220
     58       0.00000           4.811670          130.93220
     59       0.00000           4.929979          134.15156
     60       0.00000           4.929980          134.15158
     61       0.00000           5.222623          142.11480
     62       0.00000           5.222623          142.11480
     63       0.00000           5.498050          149.60955
     64       0.00000           5.498050          149.60956
     65       0.00000           5.509567          149.92294
     66       0.00000           5.509568          149.92296
     67       0.00000           6.116113          166.42791
     68       0.00000           6.116113          166.42791
     69       0.00000           6.289261          171.13951
     70       0.00000           6.485187          176.47092
     71       0.00000           6.485187          176.47092
     72       0.00000           6.929592          188.56380
     73       0.00000           7.722094          210.12886
     74       0.00000           7.750732          210.90816
     75       0.00000           7.750733          210.90817
     76       0.00000           8.133723          221.32985
     77       0.00000           8.133723          221.32985
     78       0.00000          15.789932          429.66591

  Highest occupied state (VBM) at     -6.55347648 eV
  | Occupation number:      1.00000000

  Lowest unoccupied state (CBM) at    -6.55347648 eV
  | Occupation number:      1.00000000

  Overall HOMO-LUMO gap:      0.00000000 eV.
  This system has fractional occupation numbers. Thus, it is a degenerate system
  within the approximate finite broadening function (occupation_type)
  applied to determine the occupation numbers.
  This may not be harmful. However, for some systems (free atoms), a different, non-degenerate
  ground state might exist by using a smaller broadening (see keyword occupation_type).

  Total energy components:
  | Sum of eigenvalues            :         -83.03720528 Ha       -2259.55732075 eV
  | XC energy correction          :         -16.76225647 Ha        -456.12420603 eV
  | XC potential correction       :          21.54769856 Ha         586.34271048 eV
  | Free-atom electrostatic energy:         -71.93640542 Ha       -1957.48918734 eV
  | Hartree energy correction     :          -0.03552848 Ha          -0.96677917 eV
  | Entropy correction            :          -0.00020734 Ha          -0.00564190 eV
  | ---------------------------
  | Total energy                  :        -150.22369710 Ha       -4087.79478281 eV
  | Total energy, T -> 0          :        -150.22390444 Ha       -4087.80042471 eV  <-- do not rely on this value for anything but (periodic) metals
  | Electronic free energy        :        -150.22411177 Ha       -4087.80606660 eV

  Derived energy quantities:
  | Kinetic energy                :         149.73995270 Ha        4074.63142787 eV
  | Electrostatic energy          :        -283.20139332 Ha       -7706.30200466 eV
  | Energy correction for multipole
  | error in Hartree potential    :          -0.00002139 Ha          -0.00058205 eV
  | Sum of eigenvalues per atom                           :       -1129.77866038 eV
  | Total energy (T->0) per atom                          :       -2043.90021235 eV  <-- do not rely on this value for anything but (periodic) metals
  | Electronic free energy per atom                       :       -2043.90303330 eV

  Self-consistency convergence accuracy:
  | Change of charge density      :  0.1697E+00
  | Change of sum of eigenvalues  :  0.9564E+00 eV
  | Change of total energy        :  0.3577E-01 eV

  End self-consistency iteration #     1       :  max(cpu_time)    wall_clock(cpu1)
  | Time for this iteration                    :        0.076 s           0.082 s
  | Charge density update                      :        0.020 s           0.025 s
  | Density mixing                             :        0.001 s           0.001 s
  | Hartree multipole update                   :        0.005 s           0.005 s
  | Hartree multipole summation                :        0.017 s           0.017 s
  | Integration                                :        0.026 s           0.026 s
  | Solution of K.-S. eqns.                    :        0.003 s           0.003 s
  | Total energy evaluation                    :        0.000 s           0.001 s

  Partial memory accounting:
  | Current value for overall tracked memory usage on task 0  :           0.107 MB
  | Peak value for overall tracked memory usage on task 0     :           0.429 MB after allocating gradient_basis_wave
  | Largest tracked array allocation on task 0 so far         :           0.241 MB  when allocating gradient_basis_wave
  Note:  These values currently only include a subset of arrays which are explicitly tracked.
  The "true" memory usage will be greater.
------------------------------------------------------------

------------------------------------------------------------
          Begin self-consistency iteration #    2

  Date     :  20190722, Time     :  145304.657
------------------------------------------------------------
  Evaluating new KS density.
  Integration grid: deviation in total charge (<rho> - N_e) =   1.421085E-14
  Pulay mixing of updated and previous charge densities.

  Evaluating partitioned Hartree potential by multipole expansion.
  | Analytical far-field extrapolation by fixed multipoles:
  | Hartree multipole sum: apparent total charge =  -0.210665E-06
  Summing up the Hartree potential.
  Time summed over all CPUs for potential: real work        0.116 s, elapsed        0.123 s
  | RMS charge density error from multipole expansion :   0.337744E-03

  Integrating Hamiltonian matrix: batch-based integration.
  Time summed over all CPUs for integration: real work        0.183 s, elapsed        0.206 s

  Updating Kohn-Sham eigenvalues and eigenvectors using ELSI and the ELPA eigensolver.
  ELPA settings:
  | ELPA solver          1
  Finished transformation to standard eigenproblem
  | Time :     0.000 s
  Starting ELPA eigensolver
  | Time full => tridiagonal    :     0.001 s
  | Time solve tridiagonal      :     0.000 s
  | Time ev tridiagonal => full :     0.000 s
  Finished solving standard eigenproblem
  | Time :     0.002 s
  Finished back-transformation of eigenvectors
  | Time :     0.000 s

  Obtaining occupation numbers and chemical potential using ELSI.
  | Chemical potential (Fermi level):    -5.83784572eV
  Highest occupied state (VBM) at     -5.83784572 eV
  | Occupation number:      1.00000000

  Lowest unoccupied state (CBM) at    -5.83784572 eV
  | Occupation number:      1.00000000

  Overall HOMO-LUMO gap:      0.00000000 eV.
  This system has fractional occupation numbers. Thus, it is a degenerate system
  within the approximate finite broadening function (occupation_type)
  applied to determine the occupation numbers.
  This may not be harmful. However, for some systems (free atoms), a different, non-degenerate
  ground state might exist by using a smaller broadening (see keyword occupation_type).

  Checking to see if s.c.f. parameters should be adjusted.
  Adjusted the Pulay mixing parameter (charge_mix_param) for an expected low-gap system. New value:   0.020000 .
  Adjusted the occupation broadening width for an expected low-gap system. New value:      0.05000000 eV.

  Total energy components:
  | Sum of eigenvalues            :         -82.58159748 Ha       -2247.15960164 eV
  | XC energy correction          :         -16.83920954 Ha        -458.21820557 eV
  | XC potential correction       :          21.64782505 Ha         589.06729102 eV
  | Free-atom electrostatic energy:         -71.93640542 Ha       -1957.48918734 eV
  | Hartree energy correction     :          -0.50725698 Ha         -13.80316475 eV
  | Entropy correction            :          -0.00103668 Ha          -0.02820948 eV
  | ---------------------------
  | Total energy                  :        -150.21664437 Ha       -4087.60286828 eV
  | Total energy, T -> 0          :        -150.21768105 Ha       -4087.63107776 eV  <-- do not rely on this value for anything but (periodic) metals
  | Electronic free energy        :        -150.21871773 Ha       -4087.65928724 eV

  Derived energy quantities:
  | Kinetic energy                :         150.05849385 Ha        4083.29937351 eV
  | Electrostatic energy          :        -283.43592867 Ha       -7712.68403622 eV
  | Energy correction for multipole
  | error in Hartree potential    :          -0.00030930 Ha          -0.00841654 eV
  | Sum of eigenvalues per atom                           :       -1123.57980082 eV
  | Total energy (T->0) per atom                          :       -2043.81553888 eV  <-- do not rely on this value for anything but (periodic) metals
  | Electronic free energy per atom                       :       -2043.82964362 eV

  Self-consistency convergence accuracy:
  | Change of charge density      :  0.1585E+00
  | Change of sum of eigenvalues  :  0.1240E+02 eV
  | Change of total energy        :  0.1919E+00 eV

  End self-consistency iteration #     2       :  max(cpu_time)    wall_clock(cpu1)
  | Time for this iteration                    :        0.070 s           0.072 s
  | Charge density update                      :        0.018 s           0.018 s
  | Density mixing                             :        0.002 s           0.004 s
  | Hartree multipole update                   :        0.004 s           0.003 s
  | Hartree multipole summation                :        0.017 s           0.017 s
  | Integration                                :        0.027 s           0.026 s
  | Solution of K.-S. eqns.                    :        0.002 s           0.002 s
  | Total energy evaluation                    :        0.000 s           0.001 s

  Partial memory accounting:
  | Current value for overall tracked memory usage on task 0  :           0.107 MB
  | Peak value for overall tracked memory usage on task 0     :           0.429 MB after allocating gradient_basis_wave
  | Largest tracked array allocation on task 0 so far         :           0.241 MB  when allocating gradient_basis_wave
  Note:  These values currently only include a subset of arrays which are explicitly tracked.
  The "true" memory usage will be greater.
------------------------------------------------------------

------------------------------------------------------------
          Begin self-consistency iteration #    3

  Date     :  20190722, Time     :  145304.730
------------------------------------------------------------
  Evaluating new KS density.
  Integration grid: deviation in total charge (<rho> - N_e) =  -1.776357E-15
  Pulay mixing of updated and previous charge densities.

  Evaluating partitioned Hartree potential by multipole expansion.
  | Analytical far-field extrapolation by fixed multipoles:
  | Hartree multipole sum: apparent total charge =  -0.254702E-06
  Summing up the Hartree potential.
  Time summed over all CPUs for potential: real work        0.117 s, elapsed        0.124 s
  | RMS charge density error from multipole expansion :   0.476066E-03

  Integrating Hamiltonian matrix: batch-based integration.
  Time summed over all CPUs for integration: real work        0.182 s, elapsed        0.188 s

  Updating Kohn-Sham eigenvalues and eigenvectors using ELSI and the ELPA eigensolver.
  ELPA settings:
  | ELPA solver          1
  Finished transformation to standard eigenproblem
  | Time :     0.000 s
  Starting ELPA eigensolver
  | Time full => tridiagonal    :     0.001 s
  | Time solve tridiagonal      :     0.000 s
  | Time ev tridiagonal => full :     0.000 s
  Finished solving standard eigenproblem
  | Time :     0.001 s
  Finished back-transformation of eigenvectors
  | Time :     0.000 s

  Obtaining occupation numbers and chemical potential using ELSI.
  | Chemical potential (Fermi level):    -6.04225817eV
  Highest occupied state (VBM) at     -6.04225817 eV
  | Occupation number:      1.00000000

  Lowest unoccupied state (CBM) at    -6.04225817 eV
  | Occupation number:      1.00000000

  Overall HOMO-LUMO gap:      0.00000000 eV.
  This system has fractional occupation numbers. Thus, it is a degenerate system
  within the approximate finite broadening function (occupation_type)
  applied to determine the occupation numbers.
  This may not be harmful. However, for some systems (free atoms), a different, non-degenerate
  ground state might exist by using a smaller broadening (see keyword occupation_type).

  Total energy components:
  | Sum of eigenvalues            :         -82.76605459 Ha       -2252.17893488 eV
  | XC energy correction          :         -16.81343772 Ha        -457.51691859 eV
  | XC potential correction       :          21.61411595 Ha         588.15001964 eV
  | Free-atom electrostatic energy:         -71.93640542 Ha       -1957.48918734 eV
  | Hartree energy correction     :          -0.31470948 Ha          -8.56368068 eV
  | Entropy correction            :          -0.00103668 Ha          -0.02820948 eV
  | ---------------------------
  | Total energy                  :        -150.21649126 Ha       -4087.59870185 eV
  | Total energy, T -> 0          :        -150.21752794 Ha       -4087.62691133 eV  <-- do not rely on this value for anything but (periodic) metals
  | Electronic free energy        :        -150.21856462 Ha       -4087.65512081 eV

  Derived energy quantities:
  | Kinetic energy                :         149.76263416 Ha        4075.24862199 eV
  | Electrostatic energy          :        -283.16568770 Ha       -7705.33040525 eV
  | Energy correction for multipole
  | error in Hartree potential    :          -0.00034569 Ha          -0.00940681 eV
  | Sum of eigenvalues per atom                           :       -1126.08946744 eV
  | Total energy (T->0) per atom                          :       -2043.81345567 eV  <-- do not rely on this value for anything but (periodic) metals
  | Electronic free energy per atom                       :       -2043.82756041 eV

  Self-consistency convergence accuracy:
  | Change of charge density      :  0.3555E-01
  | Change of sum of eigenvalues  : -0.5019E+01 eV
  | Change of total energy        :  0.4166E-02 eV

  End self-consistency iteration #     3       :  max(cpu_time)    wall_clock(cpu1)
  | Time for this iteration                    :        0.067 s           0.068 s
  | Charge density update                      :        0.018 s           0.017 s
  | Density mixing                             :        0.002 s           0.003 s
  | Hartree multipole update                   :        0.005 s           0.004 s
  | Hartree multipole summation                :        0.017 s           0.016 s
  | Integration                                :        0.024 s           0.024 s
  | Solution of K.-S. eqns.                    :        0.003 s           0.003 s
  | Total energy evaluation                    :        0.000 s           0.001 s

  Partial memory accounting:
  | Current value for overall tracked memory usage on task 0  :           0.107 MB
  | Peak value for overall tracked memory usage on task 0     :           0.429 MB after allocating gradient_basis_wave
  | Largest tracked array allocation on task 0 so far         :           0.241 MB  when allocating gradient_basis_wave
  Note:  These values currently only include a subset of arrays which are explicitly tracked.
  The "true" memory usage will be greater.
------------------------------------------------------------

------------------------------------------------------------
          Begin self-consistency iteration #    4

  Date     :  20190722, Time     :  145304.799
------------------------------------------------------------
  Evaluating new KS density.
  Integration grid: deviation in total charge (<rho> - N_e) =   3.552714E-15
  Pulay mixing of updated and previous charge densities.

  Evaluating partitioned Hartree potential by multipole expansion.
  | Analytical far-field extrapolation by fixed multipoles:
  | Hartree multipole sum: apparent total charge =  -0.258784E-06
  Summing up the Hartree potential.
  Time summed over all CPUs for potential: real work        0.114 s, elapsed        0.116 s
  | RMS charge density error from multipole expansion :   0.482303E-03

  Integrating Hamiltonian matrix: batch-based integration.
  Time summed over all CPUs for integration: real work        0.184 s, elapsed        0.188 s

  Updating Kohn-Sham eigenvalues and eigenvectors using ELSI and the ELPA eigensolver.
  ELPA settings:
  | ELPA solver          1
  Finished transformation to standard eigenproblem
  | Time :     0.000 s
  Starting ELPA eigensolver
  | Time full => tridiagonal    :     0.001 s
  | Time solve tridiagonal      :     0.000 s
  | Time ev tridiagonal => full :     0.000 s
  Finished solving standard eigenproblem
  | Time :     0.001 s
  Finished back-transformation of eigenvectors
  | Time :     0.000 s

  Obtaining occupation numbers and chemical potential using ELSI.
  | Chemical potential (Fermi level):    -6.01300153eV
  Highest occupied state (VBM) at     -6.01300153 eV
  | Occupation number:      1.00000000

  Lowest unoccupied state (CBM) at    -6.01300153 eV
  | Occupation number:      1.00000000

  Overall HOMO-LUMO gap:      0.00000000 eV.
  This system has fractional occupation numbers. Thus, it is a degenerate system
  within the approximate finite broadening function (occupation_type)
  applied to determine the occupation numbers.
  This may not be harmful. However, for some systems (free atoms), a different, non-degenerate
  ground state might exist by using a smaller broadening (see keyword occupation_type).

  Total energy components:
  | Sum of eigenvalues            :         -82.74582462 Ha       -2251.62844957 eV
  | XC energy correction          :         -16.81676875 Ha        -457.60756058 eV
  | XC potential correction       :          21.61845021 Ha         588.26796083 eV
  | Free-atom electrostatic energy:         -71.93640542 Ha       -1957.48918734 eV
  | Hartree energy correction     :          -0.33592286 Ha          -9.14092619 eV
  | Entropy correction            :          -0.00103668 Ha          -0.02820948 eV
  | ---------------------------
  | Total energy                  :        -150.21647145 Ha       -4087.59816285 eV
  | Total energy, T -> 0          :        -150.21750813 Ha       -4087.62637233 eV  <-- do not rely on this value for anything but (periodic) metals
  | Electronic free energy        :        -150.21854481 Ha       -4087.65458181 eV

  Derived energy quantities:
  | Kinetic energy                :         149.78098823 Ha        4075.74806157 eV
  | Electrostatic energy          :        -283.18069093 Ha       -7705.73866384 eV
  | Energy correction for multipole
  | error in Hartree potential    :          -0.00035415 Ha          -0.00963688 eV
  | Sum of eigenvalues per atom                           :       -1125.81422479 eV
  | Total energy (T->0) per atom                          :       -2043.81318617 eV  <-- do not rely on this value for anything but (periodic) metals
  | Electronic free energy per atom                       :       -2043.82729091 eV

  Self-consistency convergence accuracy:
  | Change of charge density      :  0.1065E-01
  | Change of sum of eigenvalues  :  0.5505E+00 eV
  | Change of total energy        :  0.5390E-03 eV

  End self-consistency iteration #     4       :  max(cpu_time)    wall_clock(cpu1)
  | Time for this iteration                    :        0.065 s           0.064 s
  | Charge density update                      :        0.017 s           0.016 s
  | Density mixing                             :        0.002 s           0.001 s
  | Hartree multipole update                   :        0.004 s           0.003 s
  | Hartree multipole summation                :        0.015 s           0.016 s
  | Integration                                :        0.024 s           0.023 s
  | Solution of K.-S. eqns.                    :        0.002 s           0.003 s
  | Total energy evaluation                    :        0.000 s           0.000 s

  Partial memory accounting:
  | Current value for overall tracked memory usage on task 0  :           0.108 MB
  | Peak value for overall tracked memory usage on task 0     :           0.429 MB after allocating gradient_basis_wave
  | Largest tracked array allocation on task 0 so far         :           0.241 MB  when allocating gradient_basis_wave
  Note:  These values currently only include a subset of arrays which are explicitly tracked.
  The "true" memory usage will be greater.
------------------------------------------------------------

------------------------------------------------------------
          Begin self-consistency iteration #    5

  Date     :  20190722, Time     :  145304.863
------------------------------------------------------------
  Evaluating new KS density.
  Integration grid: deviation in total charge (<rho> - N_e) =  -4.618528E-14
  Pulay mixing of updated and previous charge densities.

  Evaluating partitioned Hartree potential by multipole expansion.
  | Analytical far-field extrapolation by fixed multipoles:
  | Hartree multipole sum: apparent total charge =  -0.260828E-06
  Summing up the Hartree potential.
  Time summed over all CPUs for potential: real work        0.117 s, elapsed        0.122 s
  | RMS charge density error from multipole expansion :   0.499983E-03

  Integrating Hamiltonian matrix: batch-based integration.
  Time summed over all CPUs for integration: real work        0.183 s, elapsed        0.194 s

  Updating Kohn-Sham eigenvalues and eigenvectors using ELSI and the ELPA eigensolver.
  ELPA settings:
  | ELPA solver          1
  Finished transformation to standard eigenproblem
  | Time :     0.000 s
  Starting ELPA eigensolver
  | Time full => tridiagonal    :     0.001 s
  | Time solve tridiagonal      :     0.000 s
  | Time ev tridiagonal => full :     0.000 s
  Finished solving standard eigenproblem
  | Time :     0.001 s
  Finished back-transformation of eigenvectors
  | Time :     0.000 s

  Obtaining occupation numbers and chemical potential using ELSI.
  | Chemical potential (Fermi level):    -5.94152204eV
  Highest occupied state (VBM) at     -5.94152204 eV
  | Occupation number:      1.00000000

  Lowest unoccupied state (CBM) at    -5.94152204 eV
  | Occupation number:      1.00000000

  Overall HOMO-LUMO gap:      0.00000000 eV.
  This system has fractional occupation numbers. Thus, it is a degenerate system
  within the approximate finite broadening function (occupation_type)
  applied to determine the occupation numbers.
  This may not be harmful. However, for some systems (free atoms), a different, non-degenerate
  ground state might exist by using a smaller broadening (see keyword occupation_type).

  Total energy components:
  | Sum of eigenvalues            :         -82.69222403 Ha       -2250.16990322 eV
  | XC energy correction          :         -16.82310513 Ha        -457.77998227 eV
  | XC potential correction       :          21.62671289 Ha         588.49279994 eV
  | Free-atom electrostatic energy:         -71.93640542 Ha       -1957.48918734 eV
  | Hartree energy correction     :          -0.39142337 Ha         -10.65117191 eV
  | Entropy correction            :          -0.00103668 Ha          -0.02820948 eV
  | ---------------------------
  | Total energy                  :        -150.21644506 Ha       -4087.59744480 eV
  | Total energy, T -> 0          :        -150.21748174 Ha       -4087.62565428 eV  <-- do not rely on this value for anything but (periodic) metals
  | Electronic free energy        :        -150.21851842 Ha       -4087.65386376 eV

  Derived energy quantities:
  | Kinetic energy                :         149.82253909 Ha        4076.87871785 eV
  | Electrostatic energy          :        -283.21587901 Ha       -7706.69618038 eV
  | Energy correction for multipole
  | error in Hartree potential    :          -0.00037719 Ha          -0.01026378 eV
  | Sum of eigenvalues per atom                           :       -1125.08495161 eV
  | Total energy (T->0) per atom                          :       -2043.81282714 eV  <-- do not rely on this value for anything but (periodic) metals
  | Electronic free energy per atom                       :       -2043.82693188 eV

  Self-consistency convergence accuracy:
  | Change of charge density      :  0.7242E-02
  | Change of sum of eigenvalues  :  0.1459E+01 eV
  | Change of total energy        :  0.7181E-03 eV

  End self-consistency iteration #     5       :  max(cpu_time)    wall_clock(cpu1)
  | Time for this iteration                    :        0.068 s           0.068 s
  | Charge density update                      :        0.018 s           0.018 s
  | Density mixing                             :        0.002 s           0.002 s
  | Hartree multipole update                   :        0.004 s           0.003 s
  | Hartree multipole summation                :        0.017 s           0.016 s
  | Integration                                :        0.025 s           0.025 s
  | Solution of K.-S. eqns.                    :        0.002 s           0.003 s
  | Total energy evaluation                    :        0.000 s           0.001 s

  Partial memory accounting:
  | Current value for overall tracked memory usage on task 0  :           0.108 MB
  | Peak value for overall tracked memory usage on task 0     :           0.429 MB after allocating gradient_basis_wave
  | Largest tracked array allocation on task 0 so far         :           0.241 MB  when allocating gradient_basis_wave
  Note:  These values currently only include a subset of arrays which are explicitly tracked.
  The "true" memory usage will be greater.
------------------------------------------------------------

------------------------------------------------------------
          Begin self-consistency iteration #    6

  Date     :  20190722, Time     :  145304.932
------------------------------------------------------------
  Evaluating new KS density.
  Integration grid: deviation in total charge (<rho> - N_e) =   1.421085E-14
  Pulay mixing of updated and previous charge densities.

  Evaluating partitioned Hartree potential by multipole expansion.
  | Analytical far-field extrapolation by fixed multipoles:
  | Hartree multipole sum: apparent total charge =  -0.260741E-06
  Summing up the Hartree potential.
  Time summed over all CPUs for potential: real work        0.121 s, elapsed        0.124 s
  | RMS charge density error from multipole expansion :   0.499799E-03

  Integrating Hamiltonian matrix: batch-based integration.
  Time summed over all CPUs for integration: real work        0.190 s, elapsed        0.195 s

  Updating Kohn-Sham eigenvalues and eigenvectors using ELSI and the ELPA eigensolver.
  ELPA settings:
  | ELPA solver          1
  Finished transformation to standard eigenproblem
  | Time :     0.001 s
  Starting ELPA eigensolver
  | Time full => tridiagonal    :     0.001 s
  | Time solve tridiagonal      :     0.002 s
  | Time ev tridiagonal => full :     0.000 s
  Finished solving standard eigenproblem
  | Time :     0.004 s
  Finished back-transformation of eigenvectors
  | Time :     0.000 s

  Obtaining occupation numbers and chemical potential using ELSI.
  | Chemical potential (Fermi level):    -5.94164196eV
  Highest occupied state (VBM) at     -5.94164196 eV
  | Occupation number:      1.00000000

  Lowest unoccupied state (CBM) at    -5.94164196 eV
  | Occupation number:      1.00000000

  Overall HOMO-LUMO gap:      0.00000000 eV.
  This system has fractional occupation numbers. Thus, it is a degenerate system
  within the approximate finite broadening function (occupation_type)
  applied to determine the occupation numbers.
  This may not be harmful. However, for some systems (free atoms), a different, non-degenerate
  ground state might exist by using a smaller broadening (see keyword occupation_type).

  Total energy components:
  | Sum of eigenvalues            :         -82.69227010 Ha       -2250.17115692 eV
  | XC energy correction          :         -16.82308523 Ha        -457.77944062 eV
  | XC potential correction       :          21.62668734 Ha         588.49210459 eV
  | Free-atom electrostatic energy:         -71.93640542 Ha       -1957.48918734 eV
  | Hartree energy correction     :          -0.39137165 Ha         -10.64976455 eV
  | Entropy correction            :          -0.00103668 Ha          -0.02820948 eV
  | ---------------------------
  | Total energy                  :        -150.21644506 Ha       -4087.59744484 eV
  | Total energy, T -> 0          :        -150.21748174 Ha       -4087.62565432 eV  <-- do not rely on this value for anything but (periodic) metals
  | Electronic free energy        :        -150.21851842 Ha       -4087.65386380 eV

  Derived energy quantities:
  | Kinetic energy                :         149.82254450 Ha        4076.87886518 eV
  | Electrostatic energy          :        -283.21590434 Ha       -7706.69686940 eV
  | Energy correction for multipole
  | error in Hartree potential    :          -0.00037706 Ha          -0.01026025 eV
  | Sum of eigenvalues per atom                           :       -1125.08557846 eV
  | Total energy (T->0) per atom                          :       -2043.81282716 eV  <-- do not rely on this value for anything but (periodic) metals
  | Electronic free energy per atom                       :       -2043.82693190 eV

  Self-consistency convergence accuracy:
  | Change of charge density      :  0.5825E-03
  | Change of sum of eigenvalues  : -0.1254E-02 eV
  | Change of total energy        : -0.3835E-07 eV

  End self-consistency iteration #     6       :  max(cpu_time)    wall_clock(cpu1)
  | Time for this iteration                    :        0.084 s           0.085 s
  | Charge density update                      :        0.021 s           0.021 s
  | Density mixing                             :        0.006 s           0.004 s
  | Hartree multipole update                   :        0.004 s           0.004 s
  | Hartree multipole summation                :        0.017 s           0.017 s
  | Integration                                :        0.026 s           0.025 s
  | Solution of K.-S. eqns.                    :        0.010 s           0.010 s
  | Total energy evaluation                    :        0.000 s           0.001 s

  Partial memory accounting:
  | Current value for overall tracked memory usage on task 0  :           0.108 MB
  | Peak value for overall tracked memory usage on task 0     :           0.430 MB after allocating gradient_basis_wave
  | Largest tracked array allocation on task 0 so far         :           0.241 MB  when allocating gradient_basis_wave
  Note:  These values currently only include a subset of arrays which are explicitly tracked.
  The "true" memory usage will be greater.
------------------------------------------------------------

------------------------------------------------------------
          Begin self-consistency iteration #    7

  Date     :  20190722, Time     :  145305.018
------------------------------------------------------------
  Evaluating new KS density.
  Integration grid: deviation in total charge (<rho> - N_e) =   0.000000E+00
  Pulay mixing of updated and previous charge densities.

  Evaluating partitioned Hartree potential by multipole expansion.
  | Analytical far-field extrapolation by fixed multipoles:
  | Hartree multipole sum: apparent total charge =  -0.258093E-06
  Summing up the Hartree potential.
  Time summed over all CPUs for potential: real work        0.116 s, elapsed        0.124 s
  | RMS charge density error from multipole expansion :   0.500601E-03

  Integrating Hamiltonian matrix: batch-based integration.
  Time summed over all CPUs for integration: real work        0.181 s, elapsed        0.200 s

  Updating Kohn-Sham eigenvalues and eigenvectors using ELSI and the ELPA eigensolver.
  ELPA settings:
  | ELPA solver          1
  Finished transformation to standard eigenproblem
  | Time :     0.000 s
  Starting ELPA eigensolver
  | Time full => tridiagonal    :     0.001 s
  | Time solve tridiagonal      :     0.000 s
  | Time ev tridiagonal => full :     0.000 s
  Finished solving standard eigenproblem
  | Time :     0.002 s
  Finished back-transformation of eigenvectors
  | Time :     0.000 s

  Obtaining occupation numbers and chemical potential using ELSI.
  | Chemical potential (Fermi level):    -5.94792687eV
  Highest occupied state (VBM) at     -5.94792687 eV
  | Occupation number:      1.00000001

  Lowest unoccupied state (CBM) at    -5.94792687 eV
  | Occupation number:      0.99999999

  Overall HOMO-LUMO gap:      0.00000000 eV.
  This system has fractional occupation numbers. Thus, it is a degenerate system
  within the approximate finite broadening function (occupation_type)
  applied to determine the occupation numbers.
  This may not be harmful. However, for some systems (free atoms), a different, non-degenerate
  ground state might exist by using a smaller broadening (see keyword occupation_type).

  Total energy components:
  | Sum of eigenvalues            :         -82.69589446 Ha       -2250.26978075 eV
  | XC energy correction          :         -16.82280431 Ha        -457.77179647 eV
  | XC potential correction       :          21.62630434 Ha         588.48168273 eV
  | Free-atom electrostatic energy:         -71.93640542 Ha       -1957.48918734 eV
  | Hartree energy correction     :          -0.38764504 Ha         -10.54835820 eV
  | Entropy correction            :          -0.00103668 Ha          -0.02820948 eV
  | ---------------------------
  | Total energy                  :        -150.21644489 Ha       -4087.59744003 eV
  | Total energy, T -> 0          :        -150.21748157 Ha       -4087.62564951 eV  <-- do not rely on this value for anything but (periodic) metals
  | Electronic free energy        :        -150.21851825 Ha       -4087.65385899 eV

  Derived energy quantities:
  | Kinetic energy                :         149.82369306 Ha        4076.91011915 eV
  | Electrostatic energy          :        -283.21733364 Ha       -7706.73576271 eV
  | Energy correction for multipole
  | error in Hartree potential    :          -0.00037810 Ha          -0.01028868 eV
  | Sum of eigenvalues per atom                           :       -1125.13489037 eV
  | Total energy (T->0) per atom                          :       -2043.81282475 eV  <-- do not rely on this value for anything but (periodic) metals
  | Electronic free energy per atom                       :       -2043.82692949 eV

  Self-consistency convergence accuracy:
  | Change of charge density      :  0.5893E-03
  | Change of sum of eigenvalues  : -0.9862E-01 eV
  | Change of total energy        :  0.4809E-05 eV

  End self-consistency iteration #     7       :  max(cpu_time)    wall_clock(cpu1)
  | Time for this iteration                    :        0.069 s           0.068 s
  | Charge density update                      :        0.018 s           0.017 s
  | Density mixing                             :        0.001 s           0.002 s
  | Hartree multipole update                   :        0.004 s           0.003 s
  | Hartree multipole summation                :        0.017 s           0.016 s
  | Integration                                :        0.025 s           0.025 s
  | Solution of K.-S. eqns.                    :        0.003 s           0.003 s
  | Total energy evaluation                    :        0.001 s           0.000 s

  Partial memory accounting:
  | Current value for overall tracked memory usage on task 0  :           0.108 MB
  | Peak value for overall tracked memory usage on task 0     :           0.430 MB after allocating gradient_basis_wave
  | Largest tracked array allocation on task 0 so far         :           0.241 MB  when allocating gradient_basis_wave
  Note:  These values currently only include a subset of arrays which are explicitly tracked.
  The "true" memory usage will be greater.
------------------------------------------------------------

------------------------------------------------------------
          Begin self-consistency iteration #    8

  Date     :  20190722, Time     :  145305.086
------------------------------------------------------------
  Evaluating new KS density.
  Integration grid: deviation in total charge (<rho> - N_e) =  -3.552714E-14
  Pulay mixing of updated and previous charge densities.

  Evaluating partitioned Hartree potential by multipole expansion.
  | Analytical far-field extrapolation by fixed multipoles:
  | Hartree multipole sum: apparent total charge =  -0.257995E-06
  Summing up the Hartree potential.
  Time summed over all CPUs for potential: real work        0.115 s, elapsed        0.117 s
  | RMS charge density error from multipole expansion :   0.500595E-03

  Integrating Hamiltonian matrix: batch-based integration.
  Time summed over all CPUs for integration: real work        0.178 s, elapsed        0.185 s

  Updating Kohn-Sham eigenvalues and eigenvectors using ELSI and the ELPA eigensolver.
  ELPA settings:
  | ELPA solver          1
  Finished transformation to standard eigenproblem
  | Time :     0.000 s
  Starting ELPA eigensolver
  | Time full => tridiagonal    :     0.001 s
  | Time solve tridiagonal      :     0.000 s
  | Time ev tridiagonal => full :     0.000 s
  Finished solving standard eigenproblem
  | Time :     0.001 s
  Finished back-transformation of eigenvectors
  | Time :     0.000 s

  Obtaining occupation numbers and chemical potential using ELSI.
  | Chemical potential (Fermi level):    -5.94796322eV
  Highest occupied state (VBM) at     -5.94796322 eV
  | Occupation number:      1.00000001

  Lowest unoccupied state (CBM) at    -5.94796322 eV
  | Occupation number:      0.99999999

  Overall HOMO-LUMO gap:      0.00000000 eV.
  This system has fractional occupation numbers. Thus, it is a degenerate system
  within the approximate finite broadening function (occupation_type)
  applied to determine the occupation numbers.
  This may not be harmful. However, for some systems (free atoms), a different, non-degenerate
  ground state might exist by using a smaller broadening (see keyword occupation_type).

  Total energy components:
  | Sum of eigenvalues            :         -82.69587970 Ha       -2250.26937920 eV
  | XC energy correction          :         -16.82280165 Ha        -457.77172412 eV
  | XC potential correction       :          21.62630069 Ha         588.48158336 eV
  | Free-atom electrostatic energy:         -71.93640542 Ha       -1957.48918734 eV
  | Hartree energy correction     :          -0.38765880 Ha         -10.54873270 eV
  | Entropy correction            :          -0.00103668 Ha          -0.02820948 eV
  | ---------------------------
[...]
      37    0.0000       69.6454       -5.1223      -16.5868       -3.5774       77.5325
      38    0.0000       69.6454       -5.1223      -16.5868       -3.5774       77.5325
      39    0.0000       75.6015       -4.2459      -15.7552       -3.8109       83.2999
      40    0.0000       77.1918       -2.8939      -14.1359       -2.8895       85.5443
      41    0.0000       77.1918       -2.8939      -14.1359       -2.8895       85.5443
      42    0.0000       81.7733       -4.2135      -16.4110       -3.3879       90.5829
      43    0.0000       81.7733       -4.2135      -16.4110       -3.3879       90.5829
      44    0.0000       84.0855       -6.7812      -20.1455       -3.8084       93.6414
      45    0.0000       85.6014       -5.9692      -19.0186       -3.9660       94.6848
      46    0.0000       85.6014       -5.9692      -19.0186       -3.9660       94.6848
      47    0.0000       92.4666       -2.8339      -14.8384       -3.3764      101.0947
      48    0.0000       92.4666       -2.8339      -14.8384       -3.3764      101.0947
      49    0.0000       99.0827       -5.6178      -19.5769       -4.4549      108.5869
      50    0.0000       99.0827       -5.6178      -19.5769       -4.4549      108.5869
      51    0.0000      101.2343       -3.6771      -16.7068       -3.6549      110.6091
      52    0.0000      104.7908       -3.2560      -16.1148       -3.4959      114.1536
      53    0.0000      104.7908       -3.2560      -16.1148       -3.4959      114.1536
      54    0.0000      111.9667       -2.6288      -15.2398       -3.2912      121.2865
      55    0.0000      111.9667       -2.6288      -15.2398       -3.2912      121.2865
      56    0.0000      129.0399       -3.3768      -17.2807       -2.7413      140.2024
      57    0.0000      131.2991       -1.8746      -14.3017       -3.1393      140.5870
      58    0.0000      131.2991       -1.8746      -14.3017       -3.1393      140.5870
      59    0.0000      134.4498       -1.7155      -13.9347       -3.7236      142.9454
      60    0.0000      134.4498       -1.7155      -13.9347       -3.7236      142.9455
      61    0.0000      142.7815       -2.4300      -15.8763       -1.9872      154.2406
      62    0.0000      142.7815       -2.4300      -15.8763       -1.9872      154.2406
      63    0.0000      149.8610       -2.1426      -15.6206       -2.8138      160.5252
      64    0.0000      149.8610       -2.1426      -15.6206       -2.8138      160.5252
      65    0.0000      150.2717       -1.7310      -14.5229       -2.0531      161.0105
      66    0.0000      150.2717       -1.7310      -14.5229       -2.0531      161.0106
      67    0.0000      166.4166       -3.0049      -17.9448       -2.2109      179.1455
      68    0.0000      166.4166       -3.0049      -17.9448       -2.2109      179.1455
      69    0.0000      170.9973       -4.3961      -20.8068       -1.0432      186.3649
      70    0.0000      176.7627       -1.8623      -15.7306        1.5896      192.2206
      71    0.0000      176.7627       -1.8623      -15.7306        1.5896      192.2206
      72    0.0000      188.9957       -2.8574      -18.2517        1.4092      205.7990
      73    0.0000      210.1154       -4.3539      -21.4646        1.6464      228.8726
      74    0.0000      210.9764       -2.4040      -18.0937        1.6238      228.2898
      75    0.0000      210.9764       -2.4040      -18.0937        1.6238      228.2898
      76    0.0000      221.2114       -3.1287      -20.0467        1.0987      239.2281
      77    0.0000      221.2114       -3.1287      -20.0467        1.0987      239.2281
      78    0.0000      430.3976      -17.4327      -43.4804       -0.0515      456.3937
------------------------------------------------------------------------------------------------------
 
   DFT/Hartree-Fock HOMO level (eV):    -5.9481   -5.9481
 
   Quasiparticle HOMO level (eV):       -4.0133   -4.0133
 
------------------------------------------------------------------------------------------------------
 
 write qpe to energy_qp
 write qpe to energy_qp
          | Total time for transforming the 3-center integrals :        0.012 s
          | Total time for calculating the exchange-correlation
                                  energy matrix elements   :        0.034 s
          | Total time for calculating polarisability      :        0.067 s
          | Total time for calculating self energy 
                        on imaginary frequency axis        :        0.782 s
          | Total time for calculating the quasiparticle 
                  energies with analytic continuation      :        0.000 s
          | Total time for calculating the quasiparticle 
                  energies with contour deformation        :        0.000 s
 ----------------------------------------------------------------------
 BSE calculation starts...
 n_states          78
 n_electrons   16.0000000000000     
 n_tasks           8
 n_basis_pairs        3081
 n_loc_prodbas          48
 n_basbas         350
 read qpe from energy_qp file
 
 ----------------------------------------------------
  Integrating the 3-basis-function Coulomb matrix ...
  | i_atom:            1
  | i_atom:            2
  Integrating the Coulomb interaction matrix for auxiliary basis functions (by atoms)

  SBT integration errors (all should be 'small'):
  large logFT aliasing -> increase N/lnrange
  large SBT aliasing -> decrease lnk0 & increase lnk0+lnrange
  large SBT ringing -> decrease lnr0 & increase lnr0+lnrange
  |            El't  L: logFT-al.   small-k   large-k   small-r   large-r
  Atomic logSBT for 2-center Coulomb matrix    :  max(cpu_time)    wall_clock(cpu1)
  | Multiplication with kernel                 :        0.003 s           0.003 s
  | Main matrix multiplication                 :        0.007 s           0.005 s
  | Analytic angular integration               :        0.002 s           0.001 s
  | Kernel construction                        :        0.002 s           0.000 s
  | Overall 2-center overlap time              :        0.012 s           0.012 s

  Diagonalizing the Coulomb matrix and checking for singularities with ScaLapack .
 
  Difference of Coulomb matrix to its transposed:  3.6082E-16
  Eigenvalues of the Coulomb matrix range from    2.0000E+00 to    1.8097E-07.
  Using      345   eigenvalues out of rank      350   Coulomb matrix (auxiliary basis).
  Still using eigenvalue     3.3250E-05 while cutting     4.0375E-06 in Coulomb matrix.
 
  Multiplying ovlp_3fn x V^-0.5 (2d-scalapack)

 myid, n_basbas,ndim1_o3ks,ndim2_o3ks,n_spin           0         350          39
          20           1
 -------------------------------------------------
  Start to calculate the coulomb 4ks
 n_states, n_electrons, n_tasks, n_basbas
          78   16.0000000000000                8         350
 bse_lower_limit, bse_upper_limit           1          78
 occ_states, unocc_states, reduced_occ_states, reduced_unocc_states, n_pair_stat
 es
           9          69           9          69         621
 num_prow, num_pcol           4           2
 num_blocks           8
 proc0, nprow, npcol, myrow, mycol           4           2           0
           0
 proc1, nprow, npcol, myrow, mycol           4           2           1
           0
  | Processor     0 gets      160 rows and      312 columns  (   0.381 MB).
  | Processor     1 gets      157 rows and      312 columns  (   0.374 MB).
  | Processor     2 gets      152 rows and      312 columns  (   0.362 MB).
  | Processor     3 gets      152 rows and      312 columns  (   0.362 MB).
  | Processor     4 gets      160 rows and      309 columns  (   0.377 MB).
  | Processor     5 gets      157 rows and      309 columns  (   0.370 MB).
  | Processor     6 gets      152 rows and      309 columns  (   0.358 MB).
  | Processor     7 gets      152 rows and      309 columns  (   0.358 MB).
 | Number of total rotations for matrix building:            8
 cpu0, k_cnt,           85
 cpu1, k_cnt          90
 np1_o3KS, np2_o3KS, myp1_o3KS, myp2_o3KS           2           4           0
           1
 np1_o3KS, np2_o3KS, myp1_o3KS, myp2_o3KS           2           4           0
           0
 cpu0, sendrecv_dims        8100
 cpu1, sendrecv_dims        8100
 Building <ia|V|jb>
  | starting rotation:     1
  | starting rotation:     2
  | starting rotation:     3
  | starting rotation:     4
  | starting rotation:     5
  | starting rotation:     6
  | starting rotation:     7
  | starting rotation:     8
  HOMO and first non-fully-occupied orbitals:    9    8
 
 cpu0, k_cnt,          630
 cpu0, sendrecv_dims        9450
 cpu1, k_cnt         612
 Building <ij|W|ab>
 Calculate W or ovlp_sc_ovlp from ovlp and sc_ovlp
 cpu1, sendrecv_dims        9450
  | starting rotation:     1
  | starting rotation:     2
  | starting rotation:     3
  | starting rotation:     4
  | starting rotation:     5
  | starting rotation:     6
  | starting rotation:     7
  | starting rotation:     8
  |
  | Calling ELSI now
  |
  ELPA settings:
  | ELPA solver          2
  Starting ELPA eigensolver
  | Time full => band           :     0.012 s
  | Time band => tridiagonal    :     0.021 s
  | Time solve tridiagonal      :     0.006 s
  | Time ev tridiagonal => band :     0.020 s
  | Time ev band => full        :     0.008 s
  Finished solving standard eigenproblem
  | Time :     0.068 s
  |------------------------------------------
  | Final ELSI Output
  |------------------------------------------
  | Number of basis functions :          621
  | Number of electrons       :          0.0
  | Number of spins           :            1
  | Number of k-points        :            1
  | Number of states          :          621
  | Solver                    :         ELPA
  | Parallel mode             :   MULTI_PROC
  | Matrix format             :  BLACS_DENSE
  | Matrix sparsity           :        0.629
  |------------------------------------------
  | ELSI Project (c)  elsi-interchange.org
  |------------------------------------------
 eigenvalues TDA BSE(lowest 20):
   1.33439824232664     
   1.33439943658673     
   2.20952996663732     
   2.20953115734435     
   3.46743275103754     
   3.48967294641139     
   3.72903425104529     
   4.40023036596869     
   5.56302087037643     
   5.56302205987717     
   6.23061476769408     
   6.23061595864769     
   6.97990617615439     
   7.03079658539565     
   7.27167837351577     
   8.66919501274558     
   11.8799384783470     
   11.8799389335176     
   13.0856164805388     
   13.0856169353544     
  | Time for get_coeff_3fn_v_2d                :        1.582 s           1.588 s
  | Time for get ovlp_3ks                      :        0.012 s           0.012 s
  | Total time for BSE                         :        0.327 s           0.333 s
  | Time for BSE intiliazaiton                 :        0.002 s           0.004 s
  | Time for building <ia|V|jb>                :        0.062 s           0.062 s
  | Time for calculating W0 abf                :        0.013 s           0.014 s
  | Time for calculating W * ovlp_3ks          :        0.065 s           0.065 s
  | Time for building <ij|W|ab>                :        0.111 s           0.112 s
  | Time for solving BSE matrix                :        0.069 s           0.073 s
 End subroutine bse

------------------------------------------------------------------------------
  Final output of selected total energy values:

  The following output summarizes some interesting total energy values
  at the end of a run (AFTER all relaxation, molecular dynamics, etc.).

  | Total energy of the DFT / Hartree-Fock s.c.f. calculation      :          -4087.597440006 eV
  | Final zero-broadening corrected energy (caution - metals only) :          -4087.625649485 eV
  | For reference only, the value of 1 Hartree used in FHI-aims is :             27.211384500 eV

  Before relying on these values, please be sure to understand exactly which
  total energy value is referred to by a given number. Different objects may
  all carry the same name 'total energy'. Definitions:

  Total energy of the DFT / Hartree-Fock s.c.f. calculation:
  | Note that this energy does not include ANY quantities calculated after the
  | s.c.f. cycle, in particular not ANY RPA, MP2, etc. many-body perturbation terms.

  Final zero-broadening corrected energy:
  | For metallic systems only, a broadening of the occupation numbers at the Fermi
  | level can be extrapolated back to zero broadening by an electron-gas inspired
  | formula. For all systems that are not real metals, this value can be
  | meaningless and should be avoided.

------------------------------------------------------------------------------
  Methods described in the following list of references were used in this FHI-aims run.
  If you publish the results, please make sure to cite these reference if they apply.
  FHI-aims is an academic code, and for our developers (often, Ph.D. students
  and postdocs), scientific credit in the community is essential.
  Thank you for helping us!

  For any use of FHI-aims, please cite:

    Volker Blum, Ralf Gehrke, Felix Hanke, Paula Havu, Ville Havu,
    Xinguo Ren, Karsten Reuter, and Matthias Scheffler
    'Ab initio molecular simulations with numeric atom-centered orbitals'
    Computer Physics Communications 180, 2175-2196 (2009)
    http://dx.doi.org/10.1016/j.cpc.2009.06.022


  For Hartree-Fock, hybrid functionals, or many-body perturbation theory used in your run, please cite:

    Xinguo Ren, Patrick Rinke, Volker Blum, Juergen Wieferink, Alex Tkatchenko,
    Andrea Sanfilippo, Karsten Reuter, and Matthias Scheffler,
    'Resolution-of-identity approach to Hartree-Fock, hybrid density functionals,
    RPA, MP2, and GW with numeric atom-centered orbital basis functions'
    New Journal of Physics 14, 053020 (2012).
    http://dx.doi.org/10.1088/1367-2630/14/5/053020


  The scalable eigensolver library ELPA was used in your run.
  ELPA is essential especially for large systems on hundreds or thousands of CPUs.
  For ELPA, please cite:

    Andreas Marek, Volker Blum, Rainer Johanni, Ville Havu, Bruno Lang,
    Thomas Auckenthaler, Alexander Heinecke, Hans-Joachim Bungartz, and Hermann Lederer,
    'The ELPA Library - Scalable Parallel Eigenvalue Solutions
    for Electronic Structure Theory and Computational Science'
    The Journal of Physics: Condensed Matter 26, 213201 (2014).
    http://dx.doi.org/10.1088/0953-8984/26/21/213201


  The ELSI infrastructure was used in your run to solve the Kohn-Sham electronic structure.
  Please check out http://elsi-interchange.org to learn more.
  If scalability is important for your project, please acknowledge ELSI by citing:

    V. W-z. Yu, F. Corsetti, A. Garcia, W. P. Huhn, M. Jacquelin, W. Jia,
    B. Lange, L. Lin, J. Lu, W. Mi, A. Seifitokaldani, A. Vazquez-Mayagoitia,
    C. Yang, H. Yang, and V. Blum
    'ELSI: A unified software interface for Kohn-Sham electronic structure solvers'
    Computer Physics Communications 222, 267-285 (2018).
    http://dx.doi.org/10.1016/j.cpc.2017.09.007


  For the real-space grid partitioning and parallelization used in this calculation, please cite:

    Ville Havu, Volker Blum, Paula Havu, and Matthias Scheffler,
    'Efficient O(N) integration for all-electron electronic structure calculation'
    'using numerically tabulated basis functions'
    Journal of Computational Physics 228, 8367-8379 (2009).
    http://dx.doi.org/10.1016/j.jcp.2009.08.008

  Of course, there are many other important community references, e.g., those cited in the
  above references. Our list is limited to references that describe implementations in the
  FHI-aims code. The reason is purely practical (length of this list) - please credit others as well.

 * Warning - angular integration grids had to be adjusted for use with RI_method 'V'.
 * Background: You are using an electronic structure method that requires RI_method 'V'
 * for the resolution of identity of the Coulomb operator. (See Ren et al.,
 * New J. Phys 2012 for details.) This method requires three-center integrations
 * to be carried out on FHI-aims' normal angular and radial integration grids.
 * (See FHI-aims CPC Blum et al. 2009, p. 2183 for grid details and references.)
 * One of the angular grids specified in your control.in file was not large
 * enough for the maximal angular momenta of orbital and product basis functions
 * for its species.
 * This can lead to atomic total energy errors which cancel in energy differences.
 * Effective Sep 22, 2014, we have changed the default behavior of the code to
 * simply 'upgrade' the angular grids internally to a safe setting in this case.
 * Please be sure to NOT mix total energies from before and after the change.

------------------------------------------------------------
          Leaving FHI-aims.
          Date     :  20190722, Time     :  145310.190

          Computational steps:
          | Number of self-consistency cycles          :            9
          | Number of SCF (re)initializations          :            1

          Detailed time accounting                     :  max(cpu_time)    wall_clock(cpu1)
          | Total time                                 :        5.578 s           6.128 s
          | Preparation time                           :        0.129 s           0.145 s
          | Boundary condition initalization           :        0.002 s           0.003 s
          | Grid partitioning                          :        0.019 s           0.023 s
          | Preloading free-atom quantities on grid    :        0.020 s           0.021 s
          | Free-atom superposition energy             :        0.006 s           0.006 s
          | Total time for integrations                :        0.264 s           0.267 s
          | Product basis setup: Total time            :        0.000 s           0.000 s
          | Product basis: | 3-center integrations     :(       2.882 s)  (       2.924 s)
          | Product basis: | 2-center integrations     :(       0.140 s)  (       0.145 s)
          | Product basis: | 2-center linear algebra   :(       0.056 s)  (       0.060 s)
          | Product basis: | 3-center x 2-center       :(       0.027 s)  (       0.025 s)
          | Transforming ovlp_3fn to ovlp_3KS          :        0.012 s           0.012 s
          | Total time for evaluating scr. Coulomb matr:        0.000 s           0.000 s
          | Total time for GW self-energy              :        0.889 s           0.894 s
          | Total time for solution of K.-S. equations :        0.083 s           0.101 s
          | Total time for density update              :        0.166 s           0.166 s
          | Total time for mixing                      :        0.020 s           0.021 s
          | Total time for Hartree multipole update    :        0.038 s           0.032 s
          | Total time for Hartree multipole sum       :        0.149 s           0.147 s
          | Total time for total energy evaluation     :        0.003 s           0.009 s

          Partial memory accounting:
          | Residual value for overall tracked memory usage across tasks :           0.000 MB (should be 0.000 MB)
          | Peak values for overall tracked memory usage (after allocating gradient_basis_wave):
          |   Minimum:        0.409 MB (on task 4)
          |   Maximum:        0.430 MB (on task 1)
          |   Average:        0.415 MB
          | Largest tracked array allocation (gradient_basis_wave):
          |   Minimum:        0.241 MB (on task 1)
          |   Maximum:        0.241 MB (on task 1)
          |   Average:        0.241 MB
          Note:  These values currently only include a subset of arrays which are explicitly tracked.
          The "true" memory usage will be greater.

          Have a nice day.
------------------------------------------------------------
