  MPI-parallelism will be employed.
------------------------------------------------------------
          Invoking FHI-aims ...
          Version 160328_3
          Compiled on 2019/06/10 at 14:55:49 on host taito-login3.csc.fi.

          When using FHI-aims, please cite the following reference:

          Volker Blum, Ralf Gehrke, Felix Hanke, Paula Havu,
          Ville Havu, Xinguo Ren, Karsten Reuter, and Matthias Scheffler,
          'Ab Initio Molecular Simulations with Numeric Atom-Centered Orbitals',
          Computer Physics Communications 180, 2175-2196 (2009)

          For any questions about FHI-aims, please visit the aimsclub website
          with its forums and wiki. Contributions to both the forums and the
          wiki are warmly encouraged - they are for you, and everyone is welcome there.

------------------------------------------------------------

  Date     :  20190722, Time     :  144519.365
  Time zero on CPU 1             :   0.609900000000000E-01  s.
  Internal wall clock time zero  :           333038719.365  s.

  Using        4 parallel tasks.
  Task        0 on host c798 reporting.
  Task        1 on host c798 reporting.
  Task        2 on host c798 reporting.
  Task        3 on host c798 reporting.

  Performing system and environment tests:
  | Environment variable OMP_NUM_THREADS correctly set to 1.
  | Maximum stacksize for task 0: unlimited
  | Maximum stacksize for task 1: unlimited
  | Maximum stacksize for task 2: unlimited
  | Maximum stacksize for task 3: unlimited
  | Current stacksize for task 0: 1024 [Mb]
  | Current stacksize for task 1: 1024 [Mb]
  | Current stacksize for task 2: 1024 [Mb]
  | Current stacksize for task 3: 1024 [Mb]
  | Checking for scalapack...
  | No scalapack compiled in.

  Obtaining array dimensions for all initial allocations:
  
  -----------------------------------------------------------------------
  Parsing control.in (first pass over file, find array dimensions only).
  The contents of control.in will be repeated verbatim below
  unless switched off by setting 'verbatim_writeout .false.' .
  in the first line of control.in .
  -----------------------------------------------------------------------
  
    #  Physical model settings
    #
  
    xc                            pbe
    charge                        0.0
    relativistic                  none
  #  default_initial_moment        0.0
    spin                          none
  #  vdw_correction_hirshfeld
  
    #  SCF convergence settings
    #
  
    sc_accuracy_rho               1E-4
    sc_accuracy_eev               1E-2
    sc_accuracy_etot              1E-8
    sc_iter_limit                 100
  
    #  Occupation settings
    #
  
    restart                       restart
  #  force_occupation_projector      21 1 1.0 20 21 # ion 0
  #  force_occupation_projector      20 1 1.0 20 21 # ion 1
  #  force_occupation_projector      19 1 1.0 18 19 # ion 2
  #  force_occupation_projector      18 1 1.0 18 19 # ion 3
  #  force_occupation_projector      17 1 1.0 17 17 # ion 4
  
    #  Relaxation
    #
  
    ########relax_geometry                bfgs    1.e-4
  
  
  ################################################################################
  #
  #  FHI-aims code project
  #  VB, Fritz-Haber Institut, 2007
  #
  #  Suggested "safe" defaults for O atom (to be pasted into control.in file)
  #
  ################################################################################
    species        O
  #     global species definitions
      nucleus             8
      mass                15.9994
  #
      l_hartree           8
  #
      cut_pot             4.0  2.0  1.0
      basis_dep_cutoff    0.d0
  #
      radial_base         36 7.0
      radial_multiplier   2
       angular_grids specified
        division   0.4087  110
        division   0.5181  194
        division   0.6184  302
        division   0.7315  434
        division   0.7934  590
  #      division   0.9656  770
  #      division   1.4041  974
  #      outer_grid 974
        outer_grid 590
  ################################################################################
  #
  #  Definition of "minimal" basis
  #
  ################################################################################
  #     valence basis states
      valence      2  s   2.
      valence      2  p   4.
  #     ion occupancy
      ion_occ      2  s   1.
      ion_occ      2  p   3.
  ################################################################################
  #
  #  Suggested additional basis functions. For production calculations,
  #  uncomment them one after another (the most important basis functions are
  #  listed first).
  #
  #  Constructed for dimers: 1.0 A, 1.208 A, 1.5 A, 2.0 A, 3.0 A
  #
  ################################################################################
  #  "First tier" - improvements: -699.05 meV to -159.38 meV
       hydro 2 p 1.8
       hydro 3 d 7.6
       hydro 3 s 6.4
  #  "Second tier" - improvements: -49.91 meV to -5.39 meV
       hydro 4 f 11.6
       hydro 3 p 6.2
       hydro 3 d 5.6
       hydro 5 g 17.6
       hydro 1 s 0.75
  #  "Third tier" - improvements: -2.83 meV to -0.50 meV
  #     ionic 2 p auto
  #     hydro 4 f 10.8
  #     hydro 4 d 4.7
  #     hydro 2 s 6.8
  #  "Fourth tier" - improvements: -0.40 meV to -0.12 meV
  #     hydro 3 p 5
  #     hydro 3 s 3.3
  #     hydro 5 g 15.6
  #     hydro 4 f 17.6
  #     hydro 4 d 14
  # Further basis functions - -0.08 meV and below
  #     hydro 3 s 2.1
  #     hydro 4 d 11.6
  #     hydro 3 p 16
  #     hydro 2 s 17.2
  compute_forces .true.
  final_forces_cleaned .true.
  output dipole
  
  -----------------------------------------------------------------------
  Completed first pass over input file control.in .
  -----------------------------------------------------------------------
  
  
  -----------------------------------------------------------------------
  Parsing geometry.in (first pass over file, find array dimensions only).
  The contents of geometry.in will be repeated verbatim below
  unless switched off by setting 'verbatim_writeout .false.' .
  in the first line of geometry.in .
  -----------------------------------------------------------------------
  
  #
  # temporary structure-file for finite-difference calculation of forces
  # displacement   0.0025 of \# atom     1 direction     0
  #
  atom   -0.00000000    0.00000000   -0.00608953   O
  atom    0.00250000   -0.00000000    1.21358953   O
  
  -----------------------------------------------------------------------
  Completed first pass over input file geometry.in .
  -----------------------------------------------------------------------
  

  Basic array size parameters:
  | Number of species                 :        1
  | Number of atoms                   :        2
  | Max. basis fn. angular momentum   :        4
  | Max. atomic/ionic basis occupied n:        2
  | Max. number of basis fn. types    :        2
  | Max. radial fns per species/type  :        8
  | Max. logarithmic grid size        :     1301
  | Max. radial integration grid size :       73
  | Max. angular integration grid size:      590
  | Max. angular grid division number :        8
  | Radial grid for Hartree potential :     1301
  | Number of spin channels           :        1

------------------------------------------------------------
          Reading file control.in.
------------------------------------------------------------
  XC: Using PBE gradient-corrected functionals.
  Charge =   0.000000E+00: Neutral system requested explicitly.
  Non-relativistic treatment of kinetic energy.
  Spin treatment: No spin polarisation.
  Convergence accuracy of self-consistent charge density:  0.1000E-03
  Convergence accuracy of sum of eigenvalues:  0.1000E-01
  Convergence accuracy of total energy:  0.1000E-07
  Maximum number of s.-c. iterations  :   100
  Restart file specified as : restart
  | This file does not exist, will create it after the first complete scf cycle.
 
  Reading configuration options for species O                   .
  | Found nuclear charge :   8.0000
  | Found atomic mass :    15.9994000000000      amu
  | Found l_max for Hartree potential  :   8
  | Found cutoff potl. onset [A], width [A], scale factor :    4.00000    2.00000    1.00000
  | Threshold for basis-dependent cutoff potential is   0.000000E+00
  | Found data for basic radial integration grid :    36 points, outermost radius =    7.000 A
  | Found multiplier for basic radial grid :   2
  | Found angular grid specification: user-specified.
  | Specified grid contains     6 separate shells.
  | Check grid settings after all constraints further below.
  | Found free-atom valence shell :  2 s   2.000
  | Found free-atom valence shell :  2 p   4.000
  | No ionic wave fns used. Skipping ion_occ.
  | No ionic wave fns used. Skipping ion_occ.
  | Found hydrogenic basis function :  2 p   1.800
  | Found hydrogenic basis function :  3 d   7.600
  | Found hydrogenic basis function :  3 s   6.400
  | Found hydrogenic basis function :  4 f  11.600
  | Found hydrogenic basis function :  3 p   6.200
  | Found hydrogenic basis function :  3 d   5.600
  | Found hydrogenic basis function :  5 g  17.600
  | Found hydrogenic basis function :  1 s   0.750
  Species O                   : Missing cutoff potential type.
  Defaulting to exp(1/x)/(1-x)^2 type cutoff potential.
  Species O : No 'logarithmic' tag. Using default grid for free atom:
  | Default logarithmic grid data [bohr] : 0.1000E-03 0.1000E+03 0.1012E+01
  Species O : On-site basis accuracy parameter (for Gram-Schmidt orthonormalisation) not specified.
  Using default value basis_acc =  0.1000000E-03.
  Species O                   : Using default innermost maximum threshold i_radial=  2 for radial functions.
  Species O                   : Default cutoff onset for free atom density etc. : 0.40000000E+01 AA.
  Species O                   : Basic radial grid will be enhanced according to radial_multiplier =   2, to contain    73 grid points.
  Forces will be computed.
  Cleaning forces before final output.
  Dipole moment will be written out.
 
  Finished reading input file 'control.in'. Consistency checks are next.
 
  Target number of points in a grid batch is not set. Defaulting to  100
  Method for grid partitioning is not set. Defaulting to parallel hash+maxmin partitioning.
  Batch size limit is not set. Defaulting to    200
  By default, will store active basis functions for each batch.
  If in need of memory, prune_basis_once .false. can be used to disable this option.
  communication_type for Hartree potential was not specified.
  Defaulting to calc_hartree .
  Defaulting to Pulay charge density mixer.
  Pulay mixer: Number of relevant iterations not set.
  Defaulting to    8 iterations.
  Pulay mixer: Number of initial linear mixing iterations not set.
  Defaulting to    0 iterations.
  Work space size for distributed Hartree potential not set.
  Defaulting to   0.200000E+03 MB.
  Mixing parameter for charge density mixing has not been set.
  Using default: charge_mix_param =     0.2000.
  Algorithm-dependent basis array size parameters:
  | n_max_pulay                         :        8
  Geometry relaxation not requested: no relaxation will be performed.
  Force calculation: scf convergence accuracy of forces not set.
  Defaulting to  0.1000E-03 eV/A.
  Handling of forces: Unphysical translation and rotation will be removed from forces.
  No accuracy limit for integral partition fn. given. Defaulting to  0.1000E-14.
  No threshold value for u(r) in integrations given. Defaulting to  0.1000E-05.
  No occupation type (smearing scheme) given. Defaulting to Gaussian broadening, width =  0.1000E-01 eV.
  No accuracy for occupation numbers given. Defaulting to  0.1000E-07.
  No threshold value for occupation numbers given. Defaulting to  0.0000E+00.
  No accuracy for fermi level given. Defaulting to  0.1000E-19.
  Maximum # of iterations to find E_F not set. Defaulting to  200.
  Preferred method for the eigenvalue solver ('KS_method') not specified in 'control.in'.
  Calling blacs routine to test compilation state
  The best choice would be 'elpa', but your version of FHI-aims is compiled without scalapack support.
  Defaulting to 'lapack_fast' instead (serial solution, time will not improve with more CPUs).
  Will not use alltoall communication since running on < 1024 CPUs.
  Threshold for basis singularities not set.
  Default threshold for basis singularities:  0.1000E-04
  partition_type (choice of integration weights) for integrals was not specified.
  | Using a version of the partition function of Stratmann and coworkers ('stratmann_smoother').
  | At each grid point, the set of atoms used to build the partition table is smoothly restricted to
  | only those atoms whose free-atom density would be non-zero at that grid point.
  Partitioning for Hartree potential was not defined. Using partition_type for integrals.
  | Adjusted default value of keyword multip_moments_threshold to:       0.10000000E-11
  | This value may affect high angular momentum components of the Hartree potential in periodic systems.
  No q(lm)/r^(l+1) cutoff set for long-range Hartree potential.
  | Using default value of  0.100000E-09 .
  | Verify using the multipole_threshold keyword.
  Defaulting to new monopole extrapolation.
  Density update method: automatic selection selected.
------------------------------------------------------------


------------------------------------------------------------
          Reading geometry description geometry.in.
------------------------------------------------------------
  Input structure read successfully.
  The structure contains        2 atoms,  and a total of         16.000 electrons.

  Input geometry:
  | No unit cell requested.
  | Atomic structure:
  |       Atom                x [A]            y [A]            z [A]
  |    1: Species O              0.000000         0.000000        -0.006090
  |    2: Species O              0.002500         0.000000         1.213590
  |

  | The smallest distance between any two atoms is         1.21968162 AA.
  |
  | The first atom of this pair is atom number                      1 .
  | The second atom of this pair is atom number                     2 .

  Number of empty states per atom not set in control.in - providing a guess from actual geometry.
  | Total number of empty states used during s.c.f. cycle:        6
  If you use a very high smearing, use empty_states (per atom!) in control.in to increase this value.

  Structure-dependent array size parameters: 
  | Maximum number of distinct radial functions  :       11
  | Maximum number of basis functions            :       78
  | Number of Kohn-Sham states (occupied + empty):       14
------------------------------------------------------------

------------------------------------------------------------
          Preparing all fixed parts of the calculation.
------------------------------------------------------------
  Determining machine precision:
    2.225073858507201E-308
  Setting up grids for atomic and cluster calculations.

  Creating wave function, potential, and density for free atoms.

  Species: O

  List of occupied orbitals and eigenvalues:
    n    l              occ      energy [Ha]    energy [eV]
    1    0           2.0000       -18.898576      -514.2564
    2    0           2.0000        -0.878795       -23.9132
    2    1           4.0000        -0.332075        -9.0362

  Creating fixed part of basis set: Ionic, confined, hydrogenic.
 
  O                    hydrogenic:
 
  List of hydrogenic basis orbitals: 
    n    l      effective z      eigenvalue [eV]  inner max. [A]     outer max. [A]     outer radius [A]   
    2    1         1.800000       -11.0118           1.178562           1.178562           5.432602
    3    2         7.600000       -87.3183           0.624125           0.624125           4.634338
    3    0         6.400000       -61.9210           0.061167           1.081902           5.110480
    4    3        11.600000      -114.4239           0.731631           0.731631           4.522403
    3    1         6.200000       -58.1114           0.255680           1.030270           5.110480
    3    2         5.600000       -47.4083           0.847233           0.847233           5.173339
    5    4        17.600000      -168.5800           0.749740           0.749740           4.051222
    1    0         0.750000        -7.6499           0.705284           0.705284           5.366593
 

  Adding cutoff potential to free-atom effective potential.
  Creating atomic-like basis functions for current effective potential.

  Species O                   :

  List of atomic basis orbitals and eigenvalues:
    n    l      energy [Ha]    energy [eV]    outer radius [A]
    1    0       -18.898576      -514.2564       1.415765
    2    0        -0.878795       -23.9132       5.048385
    2    1        -0.332075        -9.0362       5.301386

  Assembling full basis from fixed parts.
  | Species O :   atomic orbital   1 s accepted.
  | Species O :   atomic orbital   2 s accepted.
  | Species O :    hydro orbital   3 s accepted.
  | Species O :    hydro orbital   1 s accepted.
  | Species O :   atomic orbital   2 p accepted.
  | Species O :    hydro orbital   2 p accepted.
  | Species O :    hydro orbital   3 p accepted.
  | Species O :    hydro orbital   3 d accepted.
  | Species O :    hydro orbital   3 d accepted.
  | Species O :    hydro orbital   4 f accepted.
  | Species O :    hydro orbital   5 g accepted.
 
  Basis size parameters after reduction:
  | Total number of radial functions:       11
  | Total number of basis functions :       78
 
  Testing on-site integration grid accuracy.
  |  Species  Function  <phi|h_atom|phi> (log., in eV)  <phi|h_atom|phi> (rad., in eV)
           1        1               -514.2564144315               -514.2564099626
           1        2                -23.9132357102                -23.9132356433
           1        3                 17.5398579759                 17.5398338425
           1        4                 14.5207278950                 14.5207740449
           1        5                 -9.0362392718                 -9.0362394845
           1        6                  7.9056275927                  7.9056237490
           1        7                 33.4201658992                 33.4201612015
           1        8                 45.8231952720                 45.8231953152
           1        9                 52.1937595491                 52.1937593440
           1       10                 85.4062894308                 85.4062894578
           1       11                142.0975701139                142.0975701391

  Preparing densities etc. for the partition functions (integrals / Hartree potential).

  Preparations completed.
  max(cpu_time)          :      0.146 s.
  Wall clock time (cpu1) :      0.160 s.
------------------------------------------------------------

------------------------------------------------------------
          Begin self-consistency loop: Initialization.

          Date     :  20190722, Time     :  144519.541
------------------------------------------------------------

  Initializing index lists of integration centers etc. from given atomic structure:
  | Number of centers in hartree potential         :         2
  | Number of centers in hartree multipole         :         2
  | Number of centers in electron density summation:         2
  | Number of centers in basis integrals           :         2
  | Number of centers in integrals                 :         2
  | Number of centers in hamiltonian               :         2
  Partitioning the integration grid into batches with parallel hashing+maxmin method.
  | Number of batches:      783
  | Maximal batch size:     116
  | Minimal batch size:      49
  | Average batch size:      68.020
  | Standard deviation of batch sizes:      21.410

  Integration load balanced across     4 MPI tasks.
  Work distribution over tasks is as follows:
  Task     0 has      13316 integration points.
  Task     1 has      13286 integration points.
  Task     2 has      13315 integration points.
  Task     3 has      13343 integration points.
  Initializing partition tables, free-atom densities, potentials, etc. across the integration grid (initialize_grid_storage).
  | initialize_grid_storage: Actual outermost partition radius vs. multipole_radius_free
  | (-- VB: in principle, multipole_radius_free should be larger, hence this output)
  | Species        1: Confinement radius =              6.000000000000000 AA, multipole_radius_free =              6.064445521808699 AA.
  | Species        1: outer_partition_radius set to              6.064445521808699 AA .
  | Original list of interatomic distances with           2 x          2 entries is created.
  | Net number of integration points:    53260
  | of which are non-zero points    :    50242
  Obtaining max. number of non-zero basis functions in each batch (get_n_compute_maxes).
  | Maximal number of non-zero basis functions:       78 in task     0
  | Maximal number of non-zero basis functions:       78 in task     1
  | Maximal number of non-zero basis functions:       78 in task     2
  | Maximal number of non-zero basis functions:       78 in task     3
  Selecting the method for density update.
  Loop over occupied states selected for charge density update.
  Integrating Hamiltonian matrix: batch-based integration.
  Time summed over all CPUs for integration: real work        0.172 s, elapsed        0.175 s
  Integrating overlap matrix.
  Time summed over all CPUs for integration: real work        0.062 s, elapsed        0.063 s

  Updating Kohn-Sham eigenvalues, eigenvectors, occupation numbers, and Fermi level.
  Solving generalized eigenproblem
  Updating Kohn-Sham eigenvalues and eigenfunctions.
  Transforming overlap matrix and checking for singularities.
  Overlap matrix is nonsingular:
  | Lowest eigenvalue:  0.296713E-03
  Solving real generalised eigenvalue problem by standard LAPACK (fast)
  Determining occupation numbers for Kohn-Sham eigenstates.
  | Chemical potential (Fermi level) in eV                 : -.66061304E+01
  | Error in electron count due to remaining E_F inaccuracy: 0.85265128E-13
  | Maximum occupation number of highest empty state:  0.00E+00

  Writing Kohn-Sham eigenvalues.

  State    Occupation    Eigenvalue [Ha]    Eigenvalue [eV]
      1       2.00000         -18.933396         -515.20393
      2       2.00000         -18.933330         -515.20212
      3       2.00000          -1.182296          -32.17190
      4       2.00000          -0.764071          -20.79142
      5       2.00000          -0.516787          -14.06250
      6       2.00000          -0.481423          -13.10018
      7       2.00000          -0.481423          -13.10018
      8       1.00000          -0.242771           -6.60613
      9       1.00000          -0.242771           -6.60613
     10       0.00000           0.071041            1.93312
     11       0.00000           0.091315            2.48480
     12       0.00000           0.132477            3.60488
     13       0.00000           0.132477            3.60488
     14       0.00000           0.194994            5.30605

  Highest occupied state (VBM) at     -6.60613044 eV
  | Occupation number:      1.00000000

  Lowest unoccupied state (CBM) at    -6.60613044 eV
  | Occupation number:      1.00000000

  Overall HOMO-LUMO gap:      0.00000000 eV.
  Calculating total energy contributions from superposition of free atom densities.

  Total energy components:
  | Sum of eigenvalues            :         -83.07099358 Ha       -2260.47674698 eV
  | XC energy correction          :         -16.75676028 Ha        -455.97464697 eV
  | XC potential correction       :          21.54054233 Ha         586.14797981 eV
  | Free-atom electrostatic energy:         -71.93779583 Ha       -1957.52702248 eV
  | Hartree energy correction     :           0.00000000 Ha           0.00000000 eV
  | Entropy correction            :          -0.00020734 Ha          -0.00564190 eV
  | ---------------------------
  | Total energy                  :        -150.22500735 Ha       -4087.83043662 eV
  | Total energy, T -> 0          :        -150.22521469 Ha       -4087.83607852 eV  <-- do not rely on this value for anything but (periodic) metals
  | Electronic free energy        :        -150.22542203 Ha       -4087.84172041 eV

  Derived energy quantities:
  | Kinetic energy                :         149.71361337 Ha        4073.91469840 eV
  | Electrostatic energy          :        -283.18186045 Ha       -7705.77048805 eV
  | Energy correction for multipole
  | error in Hartree potential    :           0.00000000 Ha           0.00000000 eV
  | Sum of eigenvalues per atom                           :       -1130.23837349 eV
  | Total energy (T->0) per atom                          :       -2043.91803926 eV  <-- do not rely on this value for anything but (periodic) metals
  | Electronic free energy per atom                       :       -2043.92086021 eV
  Initialize hartree_potential_storage
  Max. number of atoms included in rho_multipole:            2

  End scf initialization - timings             :  max(cpu_time)    wall_clock(cpu1)
  | Time for scf. initialization               :        0.133 s           0.132 s
  | Boundary condition initialization          :        0.001 s           0.001 s
  | Integration                                :        0.061 s           0.061 s
  | Solution of K.-S. eqns.                    :        0.009 s           0.010 s
  | Grid partitioning                          :        0.021 s           0.022 s
  | Preloading free-atom quantities on grid    :        0.017 s           0.017 s
  | Free-atom superposition energy             :        0.009 s           0.009 s
  | Total energy evaluation                    :        0.001 s           0.001 s
------------------------------------------------------------

------------------------------------------------------------
          Begin self-consistency iteration #    1

  Date     :  20190722, Time     :  144519.675
------------------------------------------------------------
  Evaluating new KS density.
  Integration grid: deviation in total charge (<rho> - N_e) =   1.172396E-13
  Pulay mixing of updated and previous charge densities.

  Evaluating partitioned Hartree potential by multipole expansion.
  | Analytical far-field extrapolation by fixed multipoles:
  | Hartree multipole sum: apparent total charge =  -0.166542E-07
  Summing up the Hartree potential.
  Time summed over all CPUs for potential: real work        0.098 s, elapsed        0.099 s
  | RMS charge density error from multipole expansion :   0.917134E-04

  Integrating Hamiltonian matrix: batch-based integration.
  Time summed over all CPUs for integration: real work        0.165 s, elapsed        0.167 s

  Updating Kohn-Sham eigenvalues, eigenvectors, occupation numbers, and Fermi level.
  Solving generalized eigenproblem
  Updating Kohn-Sham eigenvalues and eigenfunctions.
  Solving real generalised eigenvalue problem by standard LAPACK (fast)
  Determining occupation numbers for Kohn-Sham eigenstates.
  | Chemical potential (Fermi level) in eV                 : -.63879106E+01
  | Error in electron count due to remaining E_F inaccuracy: 0.79095308E-08
  | Maximum occupation number of highest empty state:  0.00E+00

  Writing Kohn-Sham eigenvalues.

  State    Occupation    Eigenvalue [Ha]    Eigenvalue [eV]
      1       2.00000         -18.918629         -514.80209
      2       2.00000         -18.918562         -514.80026
      3       2.00000          -1.181975          -32.16317
      4       2.00000          -0.752866          -20.48651
      5       2.00000          -0.506257          -13.77595
      6       2.00000          -0.476216          -12.95851
      7       2.00000          -0.476216          -12.95851
      8       1.00000          -0.234751           -6.38791
      9       1.00000          -0.234751           -6.38791
     10       0.00000           0.073763            2.00719
     11       0.00000           0.093467            2.54336
     12       0.00000           0.133801            3.64092
     13       0.00000           0.133801            3.64092
     14       0.00000           0.200515            5.45628

  Highest occupied state (VBM) at     -6.38791062 eV
  | Occupation number:      1.00000003

  Lowest unoccupied state (CBM) at    -6.38791062 eV
  | Occupation number:      0.99999998

  Overall HOMO-LUMO gap:      0.00000000 eV.

  Total energy components:
  | Sum of eigenvalues            :         -82.93094458 Ha       -2256.66581997 eV
  | XC energy correction          :         -16.77940389 Ha        -456.59081090 eV
  | XC potential correction       :          21.57002664 Ha         586.95028856 eV
  | Free-atom electrostatic energy:         -71.93779583 Ha       -1957.52702248 eV
  | Hartree energy correction     :          -0.14229232 Ha          -3.87197093 eV
  | Entropy correction            :          -0.00020734 Ha          -0.00564190 eV
  | ---------------------------
  | Total energy                  :        -150.22040998 Ha       -4087.70533572 eV
  | Total energy, T -> 0          :        -150.22061732 Ha       -4087.71097762 eV  <-- do not rely on this value for anything but (periodic) metals
  | Electronic free energy        :        -150.22082465 Ha       -4087.71661951 eV

  Derived energy quantities:
  | Kinetic energy                :         149.81879407 Ha        4076.77681066 eV
  | Electrostatic energy          :        -283.25980016 Ha       -7707.89133548 eV
  | Energy correction for multipole
  | error in Hartree potential    :          -0.00008554 Ha          -0.00232776 eV
  | Sum of eigenvalues per atom                           :       -1128.33290998 eV
  | Total energy (T->0) per atom                          :       -2043.85548881 eV  <-- do not rely on this value for anything but (periodic) metals
  | Electronic free energy per atom                       :       -2043.85830976 eV

  Self-consistency convergence accuracy:
  | Change of charge density      :  0.1696E+00
  | Change of sum of eigenvalues  :  0.3811E+01 eV
  | Change of total energy        :  0.1251E+00 eV

  End self-consistency iteration #     1       :  max(cpu_time)    wall_clock(cpu1)
  | Time for this iteration                    :        0.112 s           0.111 s
  | Charge density update                      :        0.032 s           0.031 s
  | Density mixing                             :        0.001 s           0.002 s
  | Hartree multipole update                   :        0.005 s           0.004 s
  | Hartree multipole summation                :        0.026 s           0.026 s
  | Integration                                :        0.042 s           0.042 s
  | Solution of K.-S. eqns.                    :        0.001 s           0.002 s
  | Total energy evaluation                    :        0.000 s           0.001 s
------------------------------------------------------------

------------------------------------------------------------
          Begin self-consistency iteration #    2

  Date     :  20190722, Time     :  144519.787
------------------------------------------------------------
  Evaluating new KS density.
  Integration grid: deviation in total charge (<rho> - N_e) =   7.909570E-09
  Pulay mixing of updated and previous charge densities.

  Evaluating partitioned Hartree potential by multipole expansion.
  | Analytical far-field extrapolation by fixed multipoles:
  | Hartree multipole sum: apparent total charge =  -0.114415E-06
  Summing up the Hartree potential.
  Time summed over all CPUs for potential: real work        0.097 s, elapsed        0.098 s
  | RMS charge density error from multipole expansion :   0.363828E-03

  Integrating Hamiltonian matrix: batch-based integration.
  Time summed over all CPUs for integration: real work        0.165 s, elapsed        0.167 s

  Updating Kohn-Sham eigenvalues, eigenvectors, occupation numbers, and Fermi level.
  Solving generalized eigenproblem
  Updating Kohn-Sham eigenvalues and eigenfunctions.
  Solving real generalised eigenvalue problem by standard LAPACK (fast)
  Determining occupation numbers for Kohn-Sham eigenstates.
  | Chemical potential (Fermi level) in eV                 : -.58805515E+01
  | Error in electron count due to remaining E_F inaccuracy: 0.00000000E+00
  | Maximum occupation number of highest empty state:  0.00E+00

  Highest occupied state (VBM) at     -5.88055150 eV
  | Occupation number:      1.00000103

  Lowest unoccupied state (CBM) at    -5.88055149 eV
  | Occupation number:      0.99999897

  Overall HOMO-LUMO gap:      0.00000002 eV.

  Total energy components:
  | Sum of eigenvalues            :         -82.61977516 Ha       -2248.19846907 eV
  | XC energy correction          :         -16.83380059 Ha        -458.07102034 eV
  | XC potential correction       :          21.64075419 Ha         588.87488312 eV
  | Free-atom electrostatic energy:         -71.93779583 Ha       -1957.52702248 eV
  | Hartree energy correction     :          -0.46592253 Ha         -12.67839715 eV
  | Entropy correction            :          -0.00020734 Ha          -0.00564190 eV
  | ---------------------------
  | Total energy                  :        -150.21653992 Ha       -4087.60002592 eV
  | Total energy, T -> 0          :        -150.21674725 Ha       -4087.60566782 eV  <-- do not rely on this value for anything but (periodic) metals
  | Electronic free energy        :        -150.21695459 Ha       -4087.61130971 eV

  Derived energy quantities:
  | Kinetic energy                :         149.99830962 Ha        4081.66167748 eV
  | Electrostatic energy          :        -283.38104895 Ha       -7711.19068306 eV
  | Energy correction for multipole
  | error in Hartree potential    :          -0.00031582 Ha          -0.00859390 eV
  | Sum of eigenvalues per atom                           :       -1124.09923453 eV
  | Total energy (T->0) per atom                          :       -2043.80283391 eV  <-- do not rely on this value for anything but (periodic) metals
  | Electronic free energy per atom                       :       -2043.80565486 eV

  Self-consistency convergence accuracy:
  | Change of charge density      :  0.1251E+00
  | Change of sum of eigenvalues  :  0.8467E+01 eV
  | Change of total energy        :  0.1053E+00 eV

  End self-consistency iteration #     2       :  max(cpu_time)    wall_clock(cpu1)
  | Time for this iteration                    :        0.105 s           0.106 s
  | Charge density update                      :        0.030 s           0.030 s
  | Density mixing                             :        0.002 s           0.002 s
  | Hartree multipole update                   :        0.004 s           0.004 s
  | Hartree multipole summation                :        0.026 s           0.025 s
  | Integration                                :        0.043 s           0.042 s
  | Solution of K.-S. eqns.                    :        0.001 s           0.002 s
  | Total energy evaluation                    :        0.000 s           0.001 s
------------------------------------------------------------

------------------------------------------------------------
          Begin self-consistency iteration #    3

  Date     :  20190722, Time     :  144519.894
------------------------------------------------------------
  Evaluating new KS density.
  Integration grid: deviation in total charge (<rho> - N_e) =  -3.250733E-13
  Pulay mixing of updated and previous charge densities.

  Evaluating partitioned Hartree potential by multipole expansion.
  | Analytical far-field extrapolation by fixed multipoles:
  | Hartree multipole sum: apparent total charge =  -0.115499E-06
  Summing up the Hartree potential.
  Time summed over all CPUs for potential: real work        0.098 s, elapsed        0.099 s
  | RMS charge density error from multipole expansion :   0.486578E-03

  Integrating Hamiltonian matrix: batch-based integration.
  Time summed over all CPUs for integration: real work        0.166 s, elapsed        0.168 s

  Updating Kohn-Sham eigenvalues, eigenvectors, occupation numbers, and Fermi level.
  Solving generalized eigenproblem
  Updating Kohn-Sham eigenvalues and eigenfunctions.
  Solving real generalised eigenvalue problem by standard LAPACK (fast)
  Determining occupation numbers for Kohn-Sham eigenstates.
  | Chemical potential (Fermi level) in eV                 : -.59861843E+01
  | Error in electron count due to remaining E_F inaccuracy: 0.38305110E-08
  | Maximum occupation number of highest empty state:  0.00E+00

  Highest occupied state (VBM) at     -5.98618476 eV
  | Occupation number:      1.00004842

  Lowest unoccupied state (CBM) at    -5.98618390 eV
  | Occupation number:      0.99995158

  Overall HOMO-LUMO gap:      0.00000086 eV.

  Total energy components:
  | Sum of eigenvalues            :         -82.72514103 Ha       -2251.06562038 eV
  | XC energy correction          :         -16.81943794 Ha        -457.68019287 eV
  | XC potential correction       :          21.62192680 Ha         588.36256379 eV
  | Free-atom electrostatic energy:         -71.93779583 Ha       -1957.52702248 eV
  | Hartree energy correction     :          -0.35600804 Ha          -9.68747163 eV
  | Entropy correction            :          -0.00020734 Ha          -0.00564190 eV
  | ---------------------------
  | Total energy                  :        -150.21645604 Ha       -4087.59774357 eV
  | Total energy, T -> 0          :        -150.21666338 Ha       -4087.60338547 eV  <-- do not rely on this value for anything but (periodic) metals
  | Electronic free energy        :        -150.21687071 Ha       -4087.60902736 eV

  Derived energy quantities:
  | Kinetic energy                :         149.80084221 Ha        4076.28831581 eV
  | Electrostatic energy          :        -283.19786031 Ha       -7706.20586651 eV
  | Energy correction for multipole
  | error in Hartree potential    :          -0.00036176 Ha          -0.00984392 eV
  | Sum of eigenvalues per atom                           :       -1125.53281019 eV
  | Total energy (T->0) per atom                          :       -2043.80169273 eV  <-- do not rely on this value for anything but (periodic) metals
  | Electronic free energy per atom                       :       -2043.80451368 eV

  Self-consistency convergence accuracy:
  | Change of charge density      :  0.2845E-01
  | Change of sum of eigenvalues  : -0.2867E+01 eV
  | Change of total energy        :  0.2282E-02 eV

  End self-consistency iteration #     3       :  max(cpu_time)    wall_clock(cpu1)
  | Time for this iteration                    :        0.106 s           0.105 s
  | Charge density update                      :        0.030 s           0.030 s
  | Density mixing                             :        0.002 s           0.002 s
  | Hartree multipole update                   :        0.004 s           0.004 s
  | Hartree multipole summation                :        0.026 s           0.025 s
  | Integration                                :        0.043 s           0.042 s
  | Solution of K.-S. eqns.                    :        0.001 s           0.001 s
  | Total energy evaluation                    :        0.000 s           0.000 s
------------------------------------------------------------

------------------------------------------------------------
          Begin self-consistency iteration #    4

  Date     :  20190722, Time     :  144520.000
------------------------------------------------------------
  Evaluating new KS density.
  Integration grid: deviation in total charge (<rho> - N_e) =   3.829726E-09
  Pulay mixing of updated and previous charge densities.

  Evaluating partitioned Hartree potential by multipole expansion.
  | Analytical far-field extrapolation by fixed multipoles:
  | Hartree multipole sum: apparent total charge =  -0.116182E-06
  Summing up the Hartree potential.
  Time summed over all CPUs for potential: real work        0.097 s, elapsed        0.098 s
  | RMS charge density error from multipole expansion :   0.502018E-03

  Integrating Hamiltonian matrix: batch-based integration.
  Time summed over all CPUs for integration: real work        0.166 s, elapsed        0.168 s

  Updating Kohn-Sham eigenvalues, eigenvectors, occupation numbers, and Fermi level.
  Solving generalized eigenproblem
  Updating Kohn-Sham eigenvalues and eigenfunctions.
  Solving real generalised eigenvalue problem by standard LAPACK (fast)
  Determining occupation numbers for Kohn-Sham eigenstates.
  | Chemical potential (Fermi level) in eV                 : -.59289882E+01
  | Error in electron count due to remaining E_F inaccuracy: 0.21548523E-08
  | Maximum occupation number of highest empty state:  0.00E+00

  Highest occupied state (VBM) at     -5.92900350 eV
  | Occupation number:      1.00172596

  Lowest unoccupied state (CBM) at    -5.92897291 eV
  | Occupation number:      0.99827405

  Overall HOMO-LUMO gap:      0.00003059 eV.

  Total energy components:
  | Sum of eigenvalues            :         -82.68296150 Ha       -2249.91785686 eV
  | XC energy correction          :         -16.82466427 Ha        -457.82240850 eV
  | XC potential correction       :          21.62873804 Ha         588.54790701 eV
  | Free-atom electrostatic energy:         -71.93779583 Ha       -1957.52702248 eV
  | Hartree energy correction     :          -0.39976412 Ha         -10.87813508 eV
  | Entropy correction            :          -0.00020734 Ha          -0.00564188 eV
  | ---------------------------
  | Total energy                  :        -150.21644767 Ha       -4087.59751591 eV
  | Total energy, T -> 0          :        -150.21665501 Ha       -4087.60315779 eV  <-- do not rely on this value for anything but (periodic) metals
  | Electronic free energy        :        -150.21686235 Ha       -4087.60879967 eV

  Derived energy quantities:
  | Kinetic energy                :         149.83305613 Ha        4077.16490127 eV
  | Electrostatic energy          :        -283.22483954 Ha       -7706.94000868 eV
  | Energy correction for multipole
  | error in Hartree potential    :          -0.00038097 Ha          -0.01036660 eV
  | Sum of eigenvalues per atom                           :       -1124.95892843 eV
  | Total energy (T->0) per atom                          :       -2043.80157889 eV  <-- do not rely on this value for anything but (periodic) metals
  | Electronic free energy per atom                       :       -2043.80439984 eV

  Self-consistency convergence accuracy:
  | Change of charge density      :  0.4729E-02
  | Change of sum of eigenvalues  :  0.1148E+01 eV
  | Change of total energy        :  0.2277E-03 eV

  End self-consistency iteration #     4       :  max(cpu_time)    wall_clock(cpu1)
  | Time for this iteration                    :        0.105 s           0.105 s
  | Charge density update                      :        0.030 s           0.030 s
  | Density mixing                             :        0.002 s           0.002 s
  | Hartree multipole update                   :        0.004 s           0.003 s
  | Hartree multipole summation                :        0.025 s           0.025 s
  | Integration                                :        0.043 s           0.043 s
  | Solution of K.-S. eqns.                    :        0.001 s           0.001 s
  | Total energy evaluation                    :        0.000 s           0.000 s
------------------------------------------------------------

------------------------------------------------------------
          Begin self-consistency iteration #    5

  Date     :  20190722, Time     :  144520.107
------------------------------------------------------------
  Evaluating new KS density.
  Integration grid: deviation in total charge (<rho> - N_e) =   2.155051E-09
  Pulay mixing of updated and previous charge densities.

  Evaluating partitioned Hartree potential by multipole expansion.
  | Analytical far-field extrapolation by fixed multipoles:
  | Hartree multipole sum: apparent total charge =  -0.114477E-06
  Summing up the Hartree potential.
  Time summed over all CPUs for potential: real work        0.096 s, elapsed        0.097 s
  | RMS charge density error from multipole expansion :   0.500549E-03

  Integrating Hamiltonian matrix: batch-based integration.
  Time summed over all CPUs for integration: real work        0.166 s, elapsed        0.168 s

  Updating Kohn-Sham eigenvalues, eigenvectors, occupation numbers, and Fermi level.
  Solving generalized eigenproblem
  Updating Kohn-Sham eigenvalues and eigenfunctions.
  Solving real generalised eigenvalue problem by standard LAPACK (fast)
  Determining occupation numbers for Kohn-Sham eigenstates.
  | Chemical potential (Fermi level) in eV                 : -.59438120E+01
  | Error in electron count due to remaining E_F inaccuracy: -.85265128E-13
  | Maximum occupation number of highest empty state:  0.00E+00

  Highest occupied state (VBM) at     -5.94395801 eV
  | Occupation number:      1.01647753

  Lowest unoccupied state (CBM) at    -5.94366593 eV
  | Occupation number:      0.98352247

  Overall HOMO-LUMO gap:      0.00029208 eV.

  Total energy components:
  | Sum of eigenvalues            :         -82.69348982 Ha       -2250.20434703 eV
  | XC energy correction          :         -16.82303969 Ha        -457.77820133 eV
  | XC potential correction       :          21.62661992 Ha         588.49027005 eV
  | Free-atom electrostatic energy:         -71.93779583 Ha       -1957.52702248 eV
  | Hartree energy correction     :          -0.38873936 Ha         -10.57813620 eV
  | Entropy correction            :          -0.00020729 Ha          -0.00564069 eV
  | ---------------------------
  | Total energy                  :        -150.21644478 Ha       -4087.59743700 eV
  | Total energy, T -> 0          :        -150.21665207 Ha       -4087.60307769 eV  <-- do not rely on this value for anything but (periodic) metals
  | Electronic free energy        :        -150.21685936 Ha       -4087.60871838 eV

  Derived energy quantities:
  | Kinetic energy                :         149.82328179 Ha        4076.89892791 eV
  | Electrostatic energy          :        -283.21668688 Ha       -7706.71816357 eV
  | Energy correction for multipole
  | error in Hartree potential    :          -0.00037780 Ha          -0.01028045 eV
  | Sum of eigenvalues per atom                           :       -1125.10217352 eV
  | Total energy (T->0) per atom                          :       -2043.80153884 eV  <-- do not rely on this value for anything but (periodic) metals
  | Electronic free energy per atom                       :       -2043.80435919 eV

  Self-consistency convergence accuracy:
  | Change of charge density      :  0.2565E-02
  | Change of sum of eigenvalues  : -0.2865E+00 eV
  | Change of total energy        :  0.7891E-04 eV

  End self-consistency iteration #     5       :  max(cpu_time)    wall_clock(cpu1)
  | Time for this iteration                    :        0.105 s           0.105 s
  | Charge density update                      :        0.030 s           0.030 s
  | Density mixing                             :        0.002 s           0.002 s
  | Hartree multipole update                   :        0.004 s           0.004 s
  | Hartree multipole summation                :        0.025 s           0.025 s
  | Integration                                :        0.043 s           0.042 s
  | Solution of K.-S. eqns.                    :        0.001 s           0.001 s
  | Total energy evaluation                    :        0.000 s           0.001 s
------------------------------------------------------------

------------------------------------------------------------
          Begin self-consistency iteration #    6

  Date     :  20190722, Time     :  144520.213
------------------------------------------------------------
  Evaluating new KS density.
  Integration grid: deviation in total charge (<rho> - N_e) =  -1.776357E-13
  Pulay mixing of updated and previous charge densities.

  Evaluating partitioned Hartree potential by multipole expansion.
  | Analytical far-field extrapolation by fixed multipoles:
  | Hartree multipole sum: apparent total charge =  -0.114243E-06
  Summing up the Hartree potential.
  Time summed over all CPUs for potential: real work        0.096 s, elapsed        0.097 s
  | RMS charge density error from multipole expansion :   0.500414E-03

  Integrating Hamiltonian matrix: batch-based integration.
  Time summed over all CPUs for integration: real work        0.165 s, elapsed        0.168 s

  Updating Kohn-Sham eigenvalues, eigenvectors, occupation numbers, and Fermi level.
  Solving generalized eigenproblem
  Updating Kohn-Sham eigenvalues and eigenfunctions.
  Solving real generalised eigenvalue problem by standard LAPACK (fast)
  Determining occupation numbers for Kohn-Sham eigenstates.
  | Chemical potential (Fermi level) in eV                 : -.59452008E+01
  | Error in electron count due to remaining E_F inaccuracy: -.85265128E-13
  | Maximum occupation number of highest empty state:  0.00E+00

  Highest occupied state (VBM) at     -5.94520300 eV
  | Occupation number:      1.00025055

  Lowest unoccupied state (CBM) at    -5.94519855 eV
  | Occupation number:      0.99974945

  Overall HOMO-LUMO gap:      0.00000444 eV.

  Total energy components:
  | Sum of eigenvalues            :         -82.69446696 Ha       -2250.23093650 eV
  | XC energy correction          :         -16.82289198 Ha        -457.77418210 eV
  | XC potential correction       :          21.62642719 Ha         588.48502562 eV
  | Free-atom electrostatic energy:         -71.93779583 Ha       -1957.52702248 eV
  | Hartree energy correction     :          -0.38771697 Ha         -10.55031554 eV
  | Entropy correction            :          -0.00020734 Ha          -0.00564190 eV
  | ---------------------------
  | Total energy                  :        -150.21644455 Ha       -4087.59743101 eV
  | Total energy, T -> 0          :        -150.21665189 Ha       -4087.60307290 eV  <-- do not rely on this value for anything but (periodic) metals
  | Electronic free energy        :        -150.21685923 Ha       -4087.60871480 eV

  Derived energy quantities:
  | Kinetic energy                :         149.82242613 Ha        4076.87564416 eV
  | Electrostatic energy          :        -283.21597870 Ha       -7706.69889307 eV
  | Energy correction for multipole
  | error in Hartree potential    :          -0.00037752 Ha          -0.01027288 eV
  | Sum of eigenvalues per atom                           :       -1125.11546825 eV
  | Total energy (T->0) per atom                          :       -2043.80153645 eV  <-- do not rely on this value for anything but (periodic) metals
  | Electronic free energy per atom                       :       -2043.80435740 eV

  Self-consistency convergence accuracy:
  | Change of charge density      :  0.5160E-02
  | Change of sum of eigenvalues  : -0.2659E-01 eV
  | Change of total energy        :  0.5989E-05 eV

  End self-consistency iteration #     6       :  max(cpu_time)    wall_clock(cpu1)
  | Time for this iteration                    :        0.105 s           0.105 s
  | Charge density update                      :        0.030 s           0.030 s
  | Density mixing                             :        0.003 s           0.003 s
  | Hartree multipole update                   :        0.005 s           0.003 s
  | Hartree multipole summation                :        0.025 s           0.025 s
  | Integration                                :        0.043 s           0.042 s
  | Solution of K.-S. eqns.                    :        0.001 s           0.001 s
  | Total energy evaluation                    :        0.000 s           0.000 s
------------------------------------------------------------

------------------------------------------------------------
          Begin self-consistency iteration #    7

  Date     :  20190722, Time     :  144520.320
------------------------------------------------------------
  Evaluating new KS density.
  Integration grid: deviation in total charge (<rho> - N_e) =   1.705303E-13
  Pulay mixing of updated and previous charge densities.

  Evaluating partitioned Hartree potential by multipole expansion.
  | Analytical far-field extrapolation by fixed multipoles:
  | Hartree multipole sum: apparent total charge =  -0.109716E-06
  Summing up the Hartree potential.
  Time summed over all CPUs for potential: real work        0.096 s, elapsed        0.097 s
  | RMS charge density error from multipole expansion :   0.500574E-03

  Integrating Hamiltonian matrix: batch-based integration.
  Time summed over all CPUs for integration: real work        0.165 s, elapsed        0.167 s

  Updating Kohn-Sham eigenvalues, eigenvectors, occupation numbers, and Fermi level.
  Solving generalized eigenproblem
  Updating Kohn-Sham eigenvalues and eigenfunctions.
  Solving real generalised eigenvalue problem by standard LAPACK (fast)
  Determining occupation numbers for Kohn-Sham eigenstates.
  | Chemical potential (Fermi level) in eV                 : -.59480603E+01
  | Error in electron count due to remaining E_F inaccuracy: 0.85265128E-13
  | Maximum occupation number of highest empty state:  0.00E+00

  Highest occupied state (VBM) at     -5.94806049 eV
  | Occupation number:      1.00001829

  Lowest unoccupied state (CBM) at    -5.94806016 eV
  | Occupation number:      0.99998171

  Overall HOMO-LUMO gap:      0.00000032 eV.

  Total energy components:
  | Sum of eigenvalues            :         -82.69594459 Ha       -2250.27114471 eV
  | XC energy correction          :         -16.82279149 Ha        -457.77144760 eV
  | XC potential correction       :          21.62628743 Ha         588.48122260 eV
  | Free-atom electrostatic energy:         -71.93779583 Ha       -1957.52702248 eV
  | Hartree energy correction     :          -0.38620002 Ha         -10.50903725 eV
  | Entropy correction            :          -0.00020734 Ha          -0.00564190 eV
  | ---------------------------
  | Total energy                  :        -150.21644450 Ha       -4087.59742945 eV
  | Total energy, T -> 0          :        -150.21665183 Ha       -4087.60307135 eV  <-- do not rely on this value for anything but (periodic) metals
  | Electronic free energy        :        -150.21685917 Ha       -4087.60871324 eV

  Derived energy quantities:
  | Kinetic energy                :         149.82371225 Ha        4076.91064132 eV
  | Electrostatic energy          :        -283.21736526 Ha       -7706.73662317 eV
  | Energy correction for multipole
  | error in Hartree potential    :          -0.00037817 Ha          -0.01029042 eV
  | Sum of eigenvalues per atom                           :       -1125.13557236 eV
  | Total energy (T->0) per atom                          :       -2043.80153567 eV  <-- do not rely on this value for anything but (periodic) metals
  | Electronic free energy per atom                       :       -2043.80435662 eV

  Self-consistency convergence accuracy:
  | Change of charge density      :  0.3638E-03
  | Change of sum of eigenvalues  : -0.4021E-01 eV
  | Change of total energy        :  0.1555E-05 eV

  End self-consistency iteration #     7       :  max(cpu_time)    wall_clock(cpu1)
  | Time for this iteration                    :        0.106 s           0.105 s
  | Charge density update                      :        0.030 s           0.030 s
  | Density mixing                             :        0.002 s           0.003 s
  | Hartree multipole update                   :        0.005 s           0.003 s
  | Hartree multipole summation                :        0.025 s           0.025 s
  | Integration                                :        0.042 s           0.042 s
  | Solution of K.-S. eqns.                    :        0.001 s           0.001 s
  | Total energy evaluation                    :        0.000 s           0.000 s
------------------------------------------------------------

------------------------------------------------------------
          Begin self-consistency iteration #    8

  Date     :  20190722, Time     :  144520.427
------------------------------------------------------------
  Evaluating new KS density.
  Integration grid: deviation in total charge (<rho> - N_e) =   3.552714E-14
  Pulay mixing of updated and previous charge densities.

  Evaluating partitioned Hartree potential by multipole expansion.
  | Analytical far-field extrapolation by fixed multipoles:
  | Hartree multipole sum: apparent total charge =  -0.109429E-06
  Summing up the Hartree potential.
  Time summed over all CPUs for potential: real work        0.096 s, elapsed        0.097 s
  | RMS charge density error from multipole expansion :   0.500587E-03

  Integrating Hamiltonian matrix: batch-based integration.
  Time summed over all CPUs for integration: real work        0.165 s, elapsed        0.167 s

  Updating Kohn-Sham eigenvalues, eigenvectors, occupation numbers, and Fermi level.
  Solving generalized eigenproblem
  Updating Kohn-Sham eigenvalues and eigenfunctions.
  Solving real generalised eigenvalue problem by standard LAPACK (fast)
  Determining occupation numbers for Kohn-Sham eigenstates.
  | Chemical potential (Fermi level) in eV                 : -.59482697E+01
  | Error in electron count due to remaining E_F inaccuracy: 0.00000000E+00
  | Maximum occupation number of highest empty state:  0.00E+00

  Highest occupied state (VBM) at     -5.94827022 eV
  | Occupation number:      1.00005850

  Lowest unoccupied state (CBM) at    -5.94826919 eV
  | Occupation number:      0.99994150

  Overall HOMO-LUMO gap:      0.00000104 eV.

  Total energy components:
  | Sum of eigenvalues            :         -82.69608682 Ha       -2250.27501508 eV
  | XC energy correction          :         -16.82277675 Ha        -457.77104638 eV
  | XC potential correction       :          21.62626788 Ha         588.48069066 eV
  | Free-atom electrostatic energy:         -71.93779583 Ha       -1957.52702248 eV
  | Hartree energy correction     :          -0.38605298 Ha         -10.50503617 eV
  | Entropy correction            :          -0.00020734 Ha          -0.00564190 eV
  | ---------------------------
  | Total energy                  :        -150.21644450 Ha       -4087.59742945 eV
  | Total energy, T -> 0          :        -150.21665183 Ha       -4087.60307134 eV  <-- do not rely on this value for anything but (periodic) metals
  | Electronic free energy        :        -150.21685917 Ha       -4087.60871324 eV

  Derived energy quantities:
  | Kinetic energy                :         149.82370964 Ha        4076.91057014 eV
  | Electrostatic energy          :        -283.21737739 Ha       -7706.73695321 eV
  | Energy correction for multipole
  | error in Hartree potential    :          -0.00037816 Ha          -0.01029013 eV
  | Sum of eigenvalues per atom                           :       -1125.13750754 eV
  | Total energy (T->0) per atom                          :       -2043.80153567 eV  <-- do not rely on this value for anything but (periodic) metals
  | Electronic free energy per atom                       :       -2043.80435662 eV

  Self-consistency convergence accuracy:
  | Change of charge density      :  0.1406E-04
  | Change of sum of eigenvalues  : -0.3870E-02 eV
  | Change of total energy        :  0.4767E-08 eV

  Electronic self-consistency reached - switching on the force computation.

  End self-consistency iteration #     8       :  max(cpu_time)    wall_clock(cpu1)
  | Time for this iteration                    :        0.106 s           0.105 s
  | Charge density & force component update    :        0.030 s           0.029 s
  | Density mixing                             :        0.003 s           0.003 s
  | Hartree multipole update                   :        0.004 s           0.004 s
  | Hartree multipole summation                :        0.025 s           0.025 s
  | Integration                                :        0.042 s           0.042 s
  | Solution of K.-S. eqns.                    :        0.001 s           0.001 s
  | Total energy evaluation                    :        0.000 s           0.001 s
------------------------------------------------------------

------------------------------------------------------------
          Begin self-consistency iteration #    9

  Date     :  20190722, Time     :  144520.534
------------------------------------------------------------
  Evaluating new KS density.
  Integration grid: deviation in total charge (<rho> - N_e) =  -3.446132E-13
  Pulay mixing of updated and previous charge densities.

  Evaluating partitioned Hartree potential by multipole expansion.
  | Analytical far-field extrapolation by fixed multipoles:
  | Hartree multipole sum: apparent total charge =  -0.109398E-06
  Summing up the Hartree potential.
  Time summed over all CPUs for potential: real work        0.257 s, elapsed        0.265 s
  | RMS charge density error from multipole expansion :   0.500618E-03

  Integrating Hamiltonian matrix: batch-based integration.
  Time summed over all CPUs for integration: real work        0.165 s, elapsed        0.167 s

  Updating Kohn-Sham eigenvalues, eigenvectors, occupation numbers, and Fermi level.
  Solving generalized eigenproblem
  Updating Kohn-Sham eigenvalues and eigenfunctions.
  Solving real generalised eigenvalue problem by standard LAPACK (fast)
  Determining occupation numbers for Kohn-Sham eigenstates.
  | Chemical potential (Fermi level) in eV                 : -.59481659E+01
  | Error in electron count due to remaining E_F inaccuracy: 0.00000000E+00
  | Maximum occupation number of highest empty state:  0.00E+00

  Highest occupied state (VBM) at     -5.94816590 eV
  | Occupation number:      1.00000267

  Lowest unoccupied state (CBM) at    -5.94816585 eV
  | Occupation number:      0.99999733

  Overall HOMO-LUMO gap:      0.00000005 eV.

  Total energy components:
  | Sum of eigenvalues            :         -82.69600917 Ha       -2250.27290214 eV
  | XC energy correction          :         -16.82278714 Ha        -457.77132909 eV
  | XC potential correction       :          21.62628139 Ha         588.48105819 eV
  | Free-atom electrostatic energy:         -71.93779583 Ha       -1957.52702248 eV
  | Hartree energy correction     :          -0.38613375 Ha         -10.50723392 eV
  | Entropy correction            :          -0.00020734 Ha          -0.00564190 eV
  | ---------------------------
  | Total energy                  :        -150.21644450 Ha       -4087.59742945 eV
  | Total energy, T -> 0          :        -150.21665183 Ha       -4087.60307134 eV  <-- do not rely on this value for anything but (periodic) metals
  | Electronic free energy        :        -150.21685917 Ha       -4087.60871324 eV

  Derived energy quantities:
  | Kinetic energy                :         149.82378439 Ha        4076.91260439 eV
  | Electrostatic energy          :        -283.21744176 Ha       -7706.73870474 eV
  | Energy correction for multipole
  | error in Hartree potential    :          -0.00037819 Ha          -0.01029116 eV
  | Sum of eigenvalues per atom                           :       -1125.13645107 eV
  | Total energy (T->0) per atom                          :       -2043.80153567 eV  <-- do not rely on this value for anything but (periodic) metals
  | Electronic free energy per atom                       :       -2043.80435662 eV

  atomic forces [eV/Ang]:
  -----------------------
  atom #    1
   Hellmann-Feynman              : -0.320887E-01  0.436258E-10 -0.156590E+02
   Ionic forces                  :  0.000000E+00  0.000000E+00  0.000000E+00
   Multipole                     :  0.508020E-04  0.780672E-13  0.246953E-01
   Pulay + GGA                   :  0.000000E+00  0.000000E+00  0.000000E+00
   ----------------------------------------------------------------
   Total forces(   1)            : -0.320379E-01  0.437038E-10 -0.156343E+02
  atom #    2
   Hellmann-Feynman              :  0.320887E-01 -0.617073E-11  0.156590E+02
   Ionic forces                  :  0.000000E+00  0.000000E+00  0.000000E+00
   Multipole                     : -0.508020E-04 -0.104306E-12 -0.246953E-01
   Pulay + GGA                   :  0.000000E+00  0.000000E+00  0.000000E+00
   ----------------------------------------------------------------
   Total forces(   2)            :  0.320379E-01 -0.627504E-11  0.156343E+02


  Self-consistency convergence accuracy:
  | Change of charge density      :  0.2127E-04
  | Change of sum of eigenvalues  :  0.2113E-02 eV
  | Change of total energy        :  0.2648E-08 eV
  | Change of forces              :  0.1563E+02 eV/A

  End self-consistency iteration #     9       :  max(cpu_time)    wall_clock(cpu1)
  | Time for this iteration                    :        0.149 s           0.148 s
  | Charge density & force component update    :        0.030 s           0.029 s
  | Density mixing                             :        0.003 s           0.003 s
  | Hartree multipole update                   :        0.005 s           0.004 s
  | Hartree multipole summation                :        0.067 s           0.067 s
  | Integration                                :        0.042 s           0.042 s
  | Solution of K.-S. eqns.                    :        0.001 s           0.001 s
  | Total energy evaluation                    :        0.001 s           0.002 s
------------------------------------------------------------

------------------------------------------------------------
          Begin self-consistency iteration #   10

  Date     :  20190722, Time     :  144520.684
------------------------------------------------------------
  Evaluating new KS density and force components.
  Integration grid: deviation in total charge (<rho> - N_e) =  -3.694822E-13
  Pulay mixing of updated and previous charge densities.

  Evaluating partitioned Hartree potential by multipole expansion.
  | Analytical far-field extrapolation by fixed multipoles:
  | Hartree multipole sum: apparent total charge =  -0.109384E-06
  Summing up the Hartree potential.
  Time summed over all CPUs for potential: real work        0.255 s, elapsed        0.262 s
  | RMS charge density error from multipole expansion :   0.500620E-03

  Integrating Hamiltonian matrix: batch-based integration.
  Time summed over all CPUs for integration: real work        0.166 s, elapsed        0.168 s

  Updating Kohn-Sham eigenvalues, eigenvectors, occupation numbers, and Fermi level.
  Solving generalized eigenproblem
  Updating Kohn-Sham eigenvalues and eigenfunctions.
  Solving real generalised eigenvalue problem by standard LAPACK (fast)
  Determining occupation numbers for Kohn-Sham eigenstates.
  | Chemical potential (Fermi level) in eV                 : -.59481718E+01
  | Error in electron count due to remaining E_F inaccuracy: -.85265128E-13
  | Maximum occupation number of highest empty state:  0.00E+00

  Highest occupied state (VBM) at     -5.94817177 eV
  | Occupation number:      1.00000081

  Lowest unoccupied state (CBM) at    -5.94817176 eV
  | Occupation number:      0.99999919

  Overall HOMO-LUMO gap:      0.00000001 eV.

  Total energy components:
  | Sum of eigenvalues            :         -82.69601348 Ha       -2250.27301950 eV
  | XC energy correction          :         -16.82278656 Ha        -457.77131356 eV
  | XC potential correction       :          21.62628064 Ha         588.48103783 eV
  | Free-atom electrostatic energy:         -71.93779583 Ha       -1957.52702248 eV
  | Hartree energy correction     :          -0.38612926 Ha         -10.50711173 eV
  | Entropy correction            :          -0.00020734 Ha          -0.00564190 eV
  | ---------------------------
  | Total energy                  :        -150.21644450 Ha       -4087.59742945 eV
  | Total energy, T -> 0          :        -150.21665183 Ha       -4087.60307134 eV  <-- do not rely on this value for anything but (periodic) metals
  | Electronic free energy        :        -150.21685917 Ha       -4087.60871324 eV

  Derived energy quantities:
  | Kinetic energy                :         149.82378015 Ha        4076.91248890 eV
  | Electrostatic energy          :        -283.21743808 Ha       -7706.73860478 eV
  | Energy correction for multipole
  | error in Hartree potential    :          -0.00037819 Ha          -0.01029117 eV
  | Sum of eigenvalues per atom                           :       -1125.13650975 eV
  | Total energy (T->0) per atom                          :       -2043.80153567 eV  <-- do not rely on this value for anything but (periodic) metals
  | Electronic free energy per atom                       :       -2043.80435662 eV

  atomic forces [eV/Ang]:
  -----------------------
  atom #    1
   Hellmann-Feynman              : -0.320888E-01  0.143210E-09 -0.156590E+02
   Ionic forces                  :  0.000000E+00  0.000000E+00  0.000000E+00
   Multipole                     :  0.508025E-04 -0.223592E-12  0.246955E-01
   Pulay + GGA                   :  0.320384E-01 -0.740457E-11  0.156345E+02
   ----------------------------------------------------------------
   Total forces(   1)            :  0.366791E-06  0.135582E-09  0.114038E-03
  atom #    2
   Hellmann-Feynman              :  0.320888E-01 -0.918367E-11  0.156590E+02
   Ionic forces                  :  0.000000E+00  0.000000E+00  0.000000E+00
   Multipole                     : -0.508025E-04 -0.206958E-12 -0.246955E-01
   Pulay + GGA                   : -0.320384E-01  0.737888E-12 -0.156345E+02
   ----------------------------------------------------------------
   Total forces(   2)            : -0.366639E-06 -0.865274E-11 -0.114038E-03


  Self-consistency convergence accuracy:
  | Change of charge density      :  0.1108E-05
  | Change of sum of eigenvalues  : -0.1174E-03 eV
  | Change of total energy        : -0.5816E-09 eV
  | Change of forces              :  0.5555E-04 eV/A

  Writing Kohn-Sham eigenvalues.

  State    Occupation    Eigenvalue [Ha]    Eigenvalue [eV]
      1       2.00000         -18.899017         -514.26842
      2       2.00000         -18.898949         -514.26657
      3       2.00000          -1.184415          -32.22957
      4       2.00000          -0.729680          -19.85560
      5       2.00000          -0.485099          -13.20022
      6       2.00000          -0.466128          -12.68398
      7       2.00000          -0.466128          -12.68398
      8       1.00000          -0.218591           -5.94817
      9       1.00000          -0.218591           -5.94817
     10       0.00000           0.079442            2.16173
     11       0.00000           0.098996            2.69383
     12       0.00000           0.137495            3.74143
     13       0.00000           0.137495            3.74143
     14       0.00000           0.210939            5.73994

  Highest occupied state (VBM) at     -5.94817177 eV
  | Occupation number:      1.00000081

  Lowest unoccupied state (CBM) at    -5.94817176 eV
  | Occupation number:      0.99999919

  Overall HOMO-LUMO gap:      0.00000001 eV.

  Self-consistency cycle converged.

  End self-consistency iteration #    10       :  max(cpu_time)    wall_clock(cpu1)
  | Time for this iteration                    :        0.218 s           0.219 s
  | Charge density & force component update    :        0.101 s           0.101 s
  | Density mixing                             :        0.002 s           0.003 s
  | Hartree multipole update                   :        0.005 s           0.003 s
  | Hartree multipole summation                :        0.066 s           0.067 s
  | Integration                                :        0.043 s           0.042 s
  | Solution of K.-S. eqns.                    :        0.001 s           0.001 s
  | Total energy evaluation                    :        0.001 s           0.001 s
------------------------------------------------------------
  Writing cluster restart information to file restart
  ------------------------------------------------------------
   Computing monopole / dipole moments for complete molecule:
  | Total electronic charge [e]         :          0.159999999999995E+02
  | Total ionic charge [e]              :          0.160000000000000E+02
  | Total charge [e]                    :          0.515143483426073E-12
  | Total dipole moment [eAng]          :          0.121172849046336E-15         0.666156917393523E-13         0.558364488405516E-12
  | Absolute dipole moment              :          0.562324254306290E-12 eAng              /                   0.270053756116990E-11 Debye  .
  Removing unitary transformations (pure translations, rotations) from forces on atoms.
  Atomic forces before filtering:
  | Net force on center of mass :   0.152331E-09  0.126929E-09 -0.591284E-10 eV/A
  | Net torque on center of mass:   0.879599E-10 -0.162179E-06 -0.180293E-12 eV
  Atomic forces after filtering:
  | Net force on center of mass :   0.000000E+00  0.415384E-25  0.000000E+00 eV/A
  | Net torque on center of mass:  -0.253318E-25  0.000000E+00  0.519230E-28 eV

  Energy and forces in a compact form:
  | Total energy uncorrected      :         -0.408759742944561E+04 eV
  | Total energy corrected        :         -0.408760307134132E+04 eV  <-- do not rely on this value for anything but (periodic) metals
  | Electronic free energy        :         -0.408760871323703E+04 eV
  Total atomic forces (unitary forces cleaned) [eV/Ang]:
  |   1          0.233747012396680E-06          0.000000000000000E+00          0.114038534543117E-03
  |   2         -0.233747012396680E-06          0.415384127120718E-25         -0.114038534543117E-03

  ------------------------------------ 
  Start decomposition of the XC Energy 
  ------------------------------------ 
  Hartree-Fock part   :          0.000000000 Ha              0.000000000 eV
  ------------------------------------ 
  X Energy            :        -16.289138730 Ha           -443.250017156 eV
  C Energy GGA        :         -0.533647834 Ha            -14.521296405 eV
  Total XC Energy     :        -16.822786564 Ha           -457.771313561 eV
  LDA X and C from self-consistent density 
  X Energy LDA        :        -14.787929769 Ha           -402.400042909 eV
  C Energy LDA        :         -1.111760001 Ha            -30.252528854 eV
  ------------------------------------ 
  End decomposition of the XC Energy 
  ------------------------------------ 

------------------------------------------------------------------------------
  Final output of selected total energy values:

  The following output summarizes some interesting total energy values
  at the end of a run (AFTER all relaxation, molecular dynamics, etc.).

  | Total energy of the DFT / Hartree-Fock s.c.f. calculation      :          -4087.597429446 eV
  | Final zero-broadening corrected energy (caution - metals only) :          -4087.603071341 eV
  | For reference only, the value of 1 Hartree used in FHI-aims is :             27.211384500 eV

  Before relying on these values, please be sure to understand exactly which
  total energy value is referred to by a given number. Different objects may
  all carry the same name 'total energy'. Definitions:

  Total energy of the DFT / Hartree-Fock s.c.f. calculation:
  | Note that this energy does not include ANY quantities calculated after the
  | s.c.f. cycle, in particular not ANY RPA, MP2, etc. many-body perturbation terms.

  Final zero-broadening corrected energy:
  | For metallic systems only, a broadening of the occupation numbers at the Fermi
  | level can be extrapolated back to zero broadening by an electron-gas inspired
  | formula. For all systems that are not real metals, this value can be
  | meaningless and should be avoided.

------------------------------------------------------------------------------
  Methods described in the following list of references were used in this FHI-aims run.
  If you publish the results, please make sure to cite these reference if they apply.
  FHI-aims is an academic code, and for our developers (often, Ph.D. students
  and postdocs), scientific credit in the community is essential.
  Thank you for helping us!

  For any use of FHI-aims, please cite:

    Volker Blum, Ralf Gehrke, Felix Hanke, Paula Havu, Ville Havu,
    Xinguo Ren, Karsten Reuter, and Matthias Scheffler
    'Ab initio molecular simulations with numeric atom-centered orbitals'
    Computer Physics Communications 180, 2175-2196 (2009)
    http://dx.doi.org/10.1016/j.cpc.2009.06.022


  For the real-space grid partitioning and parallelization used in this calculation, please cite:

    Ville Havu, Volker Blum, Paula Havu, and Matthias Scheffler,
    'Efficient O(N) integration for all-electron electronic structure calculation'
    'using numerically tabulated basis functions'
    Journal of Computational Physics 228, 8367-8379 (2009).
    http://dx.doi.org/10.1016/j.jcp.2009.08.008

  Of course, there are many other important community references, e.g., those cited in the
  above references. Our list is limited to references that describe implementations in the
  FHI-aims code. The reason is purely practical (length of this list) - please credit others as well.

------------------------------------------------------------
          Leaving FHI-aims.
          Date     :  20190722, Time     :  144520.942

          Computational steps:
          | Number of self-consistency cycles          :           10

          Detailed time accounting                     :  max(cpu_time)    wall_clock(cpu1)
          | Total time                                 :        1.559 s           1.577 s
          | Preparation time                           :        0.146 s           0.160 s
          | Grid partitioning                          :        0.021 s           0.022 s
          | Preloading free-atom quantities on grid    :        0.017 s           0.017 s
          | Free-atom superposition energy             :        0.009 s           0.009 s
          | Total time for integrations                :        0.487 s           0.482 s
          | Total time for solution of K.-S. equations :        0.019 s           0.022 s
          | Total time for density & force components  :        0.373 s           0.370 s
          | Total time for mixing                      :        0.022 s           0.025 s
          | Total time for Hartree multipole update    :        0.045 s           0.036 s
          | Total time for Hartree multipole sum       :        0.336 s           0.335 s
          | Total time for total energy evaluation     :        0.003 s           0.008 s

          Have a nice day.
------------------------------------------------------------
