  MPI-parallelism will be employed.
------------------------------------------------------------
          Invoking FHI-aims ...
          Version 160328_3
          Compiled on 2019/06/10 at 14:55:49 on host taito-login3.csc.fi.

          When using FHI-aims, please cite the following reference:

          Volker Blum, Ralf Gehrke, Felix Hanke, Paula Havu,
          Ville Havu, Xinguo Ren, Karsten Reuter, and Matthias Scheffler,
          'Ab Initio Molecular Simulations with Numeric Atom-Centered Orbitals',
          Computer Physics Communications 180, 2175-2196 (2009)

          For any questions about FHI-aims, please visit the aimsclub website
          with its forums and wiki. Contributions to both the forums and the
          wiki are warmly encouraged - they are for you, and everyone is welcome there.

------------------------------------------------------------

  Date     :  20190722, Time     :  144439.095
  Time zero on CPU 1             :   0.559910000000000E-01  s.
  Internal wall clock time zero  :           333038679.095  s.

  Using        4 parallel tasks.
  Task        0 on host c798 reporting.
  Task        1 on host c798 reporting.
  Task        2 on host c798 reporting.
  Task        3 on host c798 reporting.

  Performing system and environment tests:
  | Environment variable OMP_NUM_THREADS correctly set to 1.
  | Maximum stacksize for task 0: unlimited
  | Maximum stacksize for task 1: unlimited
  | Maximum stacksize for task 2: unlimited
  | Maximum stacksize for task 3: unlimited
  | Current stacksize for task 0: 1024 [Mb]
  | Current stacksize for task 1: 1024 [Mb]
  | Current stacksize for task 2: 1024 [Mb]
  | Current stacksize for task 3: 1024 [Mb]
  | Checking for scalapack...
  | No scalapack compiled in.

  Obtaining array dimensions for all initial allocations:
  
  -----------------------------------------------------------------------
  Parsing control.in (first pass over file, find array dimensions only).
  The contents of control.in will be repeated verbatim below
  unless switched off by setting 'verbatim_writeout .false.' .
  in the first line of control.in .
  -----------------------------------------------------------------------
  
    #  Physical model settings
    #
  
    xc                            pbe
    charge                        1.0
    relativistic                  none
  #  default_initial_moment        0.0
    spin                          none
  #  vdw_correction_hirshfeld
  
    #  SCF convergence settings
    #
  
    sc_accuracy_rho               1E-4
    sc_accuracy_eev               1E-2
    sc_accuracy_etot              1E-8
    sc_iter_limit                 100
  
    #  Occupation settings
    #
  
    restart                       restart
  #  force_occupation_projector      6 1 1.0 6 7 # ion 3
  
    #  Relaxation
    #
  
    ############relax_geometry                bfgs    1.e-4
  
  
  ################################################################################
  #
  #  FHI-aims code project
  #  VB, Fritz-Haber Institut, 2007
  #
  #  Suggested "safe" defaults for O atom (to be pasted into control.in file)
  #
  ################################################################################
    species        O
  #     global species definitions
      nucleus             8
      mass                15.9994
  #
      l_hartree           8
  #
      cut_pot             4.0  2.0  1.0
      basis_dep_cutoff    0.d0
  #
      radial_base         36 7.0
      radial_multiplier   2
       angular_grids specified
        division   0.4087  110
        division   0.5181  194
        division   0.6184  302
        division   0.7315  434
        division   0.7934  590
  #      division   0.9656  770
  #      division   1.4041  974
  #      outer_grid 974
        outer_grid 590
  ################################################################################
  #
  #  Definition of "minimal" basis
  #
  ################################################################################
  #     valence basis states
      valence      2  s   2.
      valence      2  p   4.
  #     ion occupancy
      ion_occ      2  s   1.
      ion_occ      2  p   3.
  ################################################################################
  #
  #  Suggested additional basis functions. For production calculations,
  #  uncomment them one after another (the most important basis functions are
  #  listed first).
  #
  #  Constructed for dimers: 1.0 A, 1.208 A, 1.5 A, 2.0 A, 3.0 A
  #
  ################################################################################
  #  "First tier" - improvements: -699.05 meV to -159.38 meV
       hydro 2 p 1.8
       hydro 3 d 7.6
       hydro 3 s 6.4
  #  "Second tier" - improvements: -49.91 meV to -5.39 meV
       hydro 4 f 11.6
       hydro 3 p 6.2
       hydro 3 d 5.6
       hydro 5 g 17.6
       hydro 1 s 0.75
  #  "Third tier" - improvements: -2.83 meV to -0.50 meV
  #     ionic 2 p auto
  #     hydro 4 f 10.8
  #     hydro 4 d 4.7
  #     hydro 2 s 6.8
  #  "Fourth tier" - improvements: -0.40 meV to -0.12 meV
  #     hydro 3 p 5
  #     hydro 3 s 3.3
  #     hydro 5 g 15.6
  #     hydro 4 f 17.6
  #     hydro 4 d 14
  # Further basis functions - -0.08 meV and below
  #     hydro 3 s 2.1
  #     hydro 4 d 11.6
  #     hydro 3 p 16
  #     hydro 2 s 17.2
  compute_forces .true.
  final_forces_cleaned .true.
  output dipole
  
  -----------------------------------------------------------------------
  Completed first pass over input file control.in .
  -----------------------------------------------------------------------
  
  
  -----------------------------------------------------------------------
  Parsing geometry.in (first pass over file, find array dimensions only).
  The contents of geometry.in will be repeated verbatim below
  unless switched off by setting 'verbatim_writeout .false.' .
  in the first line of geometry.in .
  -----------------------------------------------------------------------
  
  #
  # temporary structure-file for finite-difference calculation of forces
  # displacement   0.0025 of \# atom     1 direction     2
  #
  atom    0.00000000   -0.00000000    0.04235920   O
  atom   -0.00000000   -0.00000000    1.16764080   O
  
  -----------------------------------------------------------------------
  Completed first pass over input file geometry.in .
  -----------------------------------------------------------------------
  

  Basic array size parameters:
  | Number of species                 :        1
  | Number of atoms                   :        2
  | Max. basis fn. angular momentum   :        4
  | Max. atomic/ionic basis occupied n:        2
  | Max. number of basis fn. types    :        2
  | Max. radial fns per species/type  :        8
  | Max. logarithmic grid size        :     1301
  | Max. radial integration grid size :       73
  | Max. angular integration grid size:      590
  | Max. angular grid division number :        8
  | Radial grid for Hartree potential :     1301
  | Number of spin channels           :        1

------------------------------------------------------------
          Reading file control.in.
------------------------------------------------------------
  XC: Using PBE gradient-corrected functionals.
  Charged system requested: Charge =   0.100000E+01.
  Non-relativistic treatment of kinetic energy.
  Spin treatment: No spin polarisation.
  Convergence accuracy of self-consistent charge density:  0.1000E-03
  Convergence accuracy of sum of eigenvalues:  0.1000E-01
  Convergence accuracy of total energy:  0.1000E-07
  Maximum number of s.-c. iterations  :   100
  Restart file specified as : restart
  | Reading information from existing file.
 
  Reading configuration options for species O                   .
  | Found nuclear charge :   8.0000
  | Found atomic mass :    15.9994000000000      amu
  | Found l_max for Hartree potential  :   8
  | Found cutoff potl. onset [A], width [A], scale factor :    4.00000    2.00000    1.00000
  | Threshold for basis-dependent cutoff potential is   0.000000E+00
  | Found data for basic radial integration grid :    36 points, outermost radius =    7.000 A
  | Found multiplier for basic radial grid :   2
  | Found angular grid specification: user-specified.
  | Specified grid contains     6 separate shells.
  | Check grid settings after all constraints further below.
  | Found free-atom valence shell :  2 s   2.000
  | Found free-atom valence shell :  2 p   4.000
  | No ionic wave fns used. Skipping ion_occ.
  | No ionic wave fns used. Skipping ion_occ.
  | Found hydrogenic basis function :  2 p   1.800
  | Found hydrogenic basis function :  3 d   7.600
  | Found hydrogenic basis function :  3 s   6.400
  | Found hydrogenic basis function :  4 f  11.600
  | Found hydrogenic basis function :  3 p   6.200
  | Found hydrogenic basis function :  3 d   5.600
  | Found hydrogenic basis function :  5 g  17.600
  | Found hydrogenic basis function :  1 s   0.750
  Species O                   : Missing cutoff potential type.
  Defaulting to exp(1/x)/(1-x)^2 type cutoff potential.
  Species O : No 'logarithmic' tag. Using default grid for free atom:
  | Default logarithmic grid data [bohr] : 0.1000E-03 0.1000E+03 0.1012E+01
  Species O : On-site basis accuracy parameter (for Gram-Schmidt orthonormalisation) not specified.
  Using default value basis_acc =  0.1000000E-03.
  Species O                   : Using default innermost maximum threshold i_radial=  2 for radial functions.
  Species O                   : Default cutoff onset for free atom density etc. : 0.40000000E+01 AA.
  Species O                   : Basic radial grid will be enhanced according to radial_multiplier =   2, to contain    73 grid points.
  Forces will be computed.
  Cleaning forces before final output.
  Dipole moment will be written out.
 
  Finished reading input file 'control.in'. Consistency checks are next.
 
  Target number of points in a grid batch is not set. Defaulting to  100
  Method for grid partitioning is not set. Defaulting to parallel hash+maxmin partitioning.
  Batch size limit is not set. Defaulting to    200
  By default, will store active basis functions for each batch.
  If in need of memory, prune_basis_once .false. can be used to disable this option.
  communication_type for Hartree potential was not specified.
  Defaulting to calc_hartree .
  Defaulting to Pulay charge density mixer.
  Pulay mixer: Number of relevant iterations not set.
  Defaulting to    8 iterations.
  Pulay mixer: Number of initial linear mixing iterations not set.
  Defaulting to    0 iterations.
  Work space size for distributed Hartree potential not set.
  Defaulting to   0.200000E+03 MB.
  Mixing parameter for charge density mixing has not been set.
  Using default: charge_mix_param =     0.2000.
  Algorithm-dependent basis array size parameters:
  | n_max_pulay                         :        8
  Geometry relaxation not requested: no relaxation will be performed.
  Force calculation: scf convergence accuracy of forces not set.
  Defaulting to  0.1000E-03 eV/A.
  Handling of forces: Unphysical translation and rotation will be removed from forces.
  No accuracy limit for integral partition fn. given. Defaulting to  0.1000E-14.
  No threshold value for u(r) in integrations given. Defaulting to  0.1000E-05.
  No occupation type (smearing scheme) given. Defaulting to Gaussian broadening, width =  0.1000E-01 eV.
  No accuracy for occupation numbers given. Defaulting to  0.1000E-07.
  No threshold value for occupation numbers given. Defaulting to  0.0000E+00.
  No accuracy for fermi level given. Defaulting to  0.1000E-19.
  Maximum # of iterations to find E_F not set. Defaulting to  200.
  Preferred method for the eigenvalue solver ('KS_method') not specified in 'control.in'.
  Calling blacs routine to test compilation state
  The best choice would be 'elpa', but your version of FHI-aims is compiled without scalapack support.
  Defaulting to 'lapack_fast' instead (serial solution, time will not improve with more CPUs).
  Will not use alltoall communication since running on < 1024 CPUs.
  Threshold for basis singularities not set.
  Default threshold for basis singularities:  0.1000E-04
  partition_type (choice of integration weights) for integrals was not specified.
  | Using a version of the partition function of Stratmann and coworkers ('stratmann_smoother').
  | At each grid point, the set of atoms used to build the partition table is smoothly restricted to
  | only those atoms whose free-atom density would be non-zero at that grid point.
  Partitioning for Hartree potential was not defined. Using partition_type for integrals.
  | Adjusted default value of keyword multip_moments_threshold to:       0.10000000E-11
  | This value may affect high angular momentum components of the Hartree potential in periodic systems.
  No q(lm)/r^(l+1) cutoff set for long-range Hartree potential.
  | Using default value of  0.100000E-09 .
  | Verify using the multipole_threshold keyword.
  Defaulting to new monopole extrapolation.
  Density update method: automatic selection selected.
------------------------------------------------------------


------------------------------------------------------------
          Reading geometry description geometry.in.
------------------------------------------------------------
 * Warning: Initial charge and total charge of the system are inconsistent.
 * Selected charge in control.in:     1.0000* Sum of initial charges in geometry.in:     0.0000
  Input structure read successfully.
  The structure contains        2 atoms,  and a total of         15.000 electrons.

  Input geometry:
  | No unit cell requested.
  | Atomic structure:
  |       Atom                x [A]            y [A]            z [A]
  |    1: Species O              0.000000         0.000000         0.042359
  |    2: Species O              0.000000         0.000000         1.167641
  |

  | The smallest distance between any two atoms is         1.12528160 AA.
  |
  | The first atom of this pair is atom number                      1 .
  | The second atom of this pair is atom number                     2 .

  Number of empty states per atom not set in control.in - providing a guess from actual geometry.
  | Total number of empty states used during s.c.f. cycle:        6
  If you use a very high smearing, use empty_states (per atom!) in control.in to increase this value.

  Structure-dependent array size parameters: 
  | Maximum number of distinct radial functions  :       11
  | Maximum number of basis functions            :       78
  | Number of Kohn-Sham states (occupied + empty):       14
------------------------------------------------------------

------------------------------------------------------------
          Preparing all fixed parts of the calculation.
------------------------------------------------------------
  Determining machine precision:
    2.225073858507201E-308
  Setting up grids for atomic and cluster calculations.

  Creating wave function, potential, and density for free atoms.

  Species: O

  List of occupied orbitals and eigenvalues:
    n    l              occ      energy [Ha]    energy [eV]
    1    0           2.0000       -18.898576      -514.2564
    2    0           2.0000        -0.878795       -23.9132
    2    1           4.0000        -0.332075        -9.0362

  Creating fixed part of basis set: Ionic, confined, hydrogenic.
 
  O                    hydrogenic:
 
  List of hydrogenic basis orbitals: 
    n    l      effective z      eigenvalue [eV]  inner max. [A]     outer max. [A]     outer radius [A]   
    2    1         1.800000       -11.0118           1.178562           1.178562           5.432602
    3    2         7.600000       -87.3183           0.624125           0.624125           4.634338
    3    0         6.400000       -61.9210           0.061167           1.081902           5.110480
    4    3        11.600000      -114.4239           0.731631           0.731631           4.522403
    3    1         6.200000       -58.1114           0.255680           1.030270           5.110480
    3    2         5.600000       -47.4083           0.847233           0.847233           5.173339
    5    4        17.600000      -168.5800           0.749740           0.749740           4.051222
    1    0         0.750000        -7.6499           0.705284           0.705284           5.366593
 

  Adding cutoff potential to free-atom effective potential.
  Creating atomic-like basis functions for current effective potential.

  Species O                   :

  List of atomic basis orbitals and eigenvalues:
    n    l      energy [Ha]    energy [eV]    outer radius [A]
    1    0       -18.898576      -514.2564       1.415765
    2    0        -0.878795       -23.9132       5.048385
    2    1        -0.332075        -9.0362       5.301386

  Assembling full basis from fixed parts.
  | Species O :   atomic orbital   1 s accepted.
  | Species O :   atomic orbital   2 s accepted.
  | Species O :    hydro orbital   3 s accepted.
  | Species O :    hydro orbital   1 s accepted.
  | Species O :   atomic orbital   2 p accepted.
  | Species O :    hydro orbital   2 p accepted.
  | Species O :    hydro orbital   3 p accepted.
  | Species O :    hydro orbital   3 d accepted.
  | Species O :    hydro orbital   3 d accepted.
  | Species O :    hydro orbital   4 f accepted.
  | Species O :    hydro orbital   5 g accepted.
 
  Basis size parameters after reduction:
  | Total number of radial functions:       11
  | Total number of basis functions :       78
 
  Testing on-site integration grid accuracy.
  |  Species  Function  <phi|h_atom|phi> (log., in eV)  <phi|h_atom|phi> (rad., in eV)
           1        1               -514.2564144315               -514.2564099626
           1        2                -23.9132357102                -23.9132356433
           1        3                 17.5398579759                 17.5398338425
           1        4                 14.5207278950                 14.5207740449
           1        5                 -9.0362392718                 -9.0362394845
           1        6                  7.9056275927                  7.9056237490
           1        7                 33.4201658992                 33.4201612015
           1        8                 45.8231952720                 45.8231953152
           1        9                 52.1937595491                 52.1937593440
           1       10                 85.4062894308                 85.4062894578
           1       11                142.0975701139                142.0975701391

  Preparing densities etc. for the partition functions (integrals / Hartree potential).

  Preparations completed.
  max(cpu_time)          :      0.140 s.
  Wall clock time (cpu1) :      0.149 s.
------------------------------------------------------------

------------------------------------------------------------
          Begin self-consistency loop: Initialization.

          Date     :  20190722, Time     :  144439.256
------------------------------------------------------------

  Initializing index lists of integration centers etc. from given atomic structure:
  | Number of centers in hartree potential         :         2
  | Number of centers in hartree multipole         :         2
  | Number of centers in electron density summation:         2
  | Number of centers in basis integrals           :         2
  | Number of centers in integrals                 :         2
  | Number of centers in hamiltonian               :         2
  Partitioning the integration grid into batches with parallel hashing+maxmin method.
  | Number of batches:      746
  | Maximal batch size:     112
  | Minimal batch size:      49
  | Average batch size:      71.394
  | Standard deviation of batch sizes:      21.536

  Integration load balanced across     4 MPI tasks.
  Work distribution over tasks is as follows:
  Task     0 has      13380 integration points.
  Task     1 has      13301 integration points.
  Task     2 has      13300 integration points.
  Task     3 has      13279 integration points.
  Initializing partition tables, free-atom densities, potentials, etc. across the integration grid (initialize_grid_storage).
  | initialize_grid_storage: Actual outermost partition radius vs. multipole_radius_free
  | (-- VB: in principle, multipole_radius_free should be larger, hence this output)
  | Species        1: Confinement radius =              6.000000000000000 AA, multipole_radius_free =              6.064445521808699 AA.
  | Species        1: outer_partition_radius set to              6.064445521808699 AA .
  | Original list of interatomic distances with           2 x          2 entries is created.
  | Net number of integration points:    53260
  | of which are non-zero points    :    50010
  Obtaining max. number of non-zero basis functions in each batch (get_n_compute_maxes).
  | Maximal number of non-zero basis functions:       78 in task     0
  | Maximal number of non-zero basis functions:       78 in task     1
  | Maximal number of non-zero basis functions:       78 in task     2
  | Maximal number of non-zero basis functions:       78 in task     3
  Selecting the method for density update.
  Loop over occupied states selected for charge density update.
  Integrating Hamiltonian matrix: batch-based integration.
  Time summed over all CPUs for integration: real work        0.169 s, elapsed        0.170 s
  Integrating overlap matrix.
  Time summed over all CPUs for integration: real work        0.060 s, elapsed        0.061 s

  Reading cluster restart information from file restart
  Writing Kohn-Sham eigenvalues.

  State    Occupation    Eigenvalue [Ha]    Eigenvalue [eV]
      1       2.00000         -18.890116         -514.02622
      2       2.00000         -18.889903         -514.02042
      3       2.00000          -1.264962          -34.42137
      4       2.00000          -0.702169          -19.10699
      5       2.00000          -0.501484          -13.64608
      6       2.00000          -0.501484          -13.64608
      7       2.00000          -0.494530          -13.45685
      8       1.00000          -0.187742           -5.10873
      9       1.00000          -0.187742           -5.10873
     10       0.00000           0.098767            2.68759
     11       0.00000           0.105011            2.85750
     12       0.00000           0.133245            3.62577
     13       0.00000           0.000000            0.00000
     14       0.00000           0.000000            0.00000

  Highest occupied state (VBM) at     -5.10872896 eV
  | Occupation number:      1.00000032

  Lowest unoccupied state (CBM) at    -5.10872895 eV
  | Occupation number:      0.99999968

  Overall HOMO-LUMO gap:      0.00000001 eV.
*** get_ev_sum_p0 expected pure occ_numbers
*** sum(occ_numbers) =  1.6000000000000000E+01 instead of  1.5000000000000000E+01
  Calculating total energy contributions from superposition of free atom densities.
*** get_entropy_correction expected pure occ_numbers
*** sum(occ_numbers) =  1.6000000000000000E+01 instead of  1.5000000000000000E+01
*** get_penalty_energy expected pure occ_numbers
*** sum(occ_numbers) =  1.6000000000000000E+01 instead of  1.5000000000000000E+01

  Total energy components:
  | Sum of eigenvalues            :         -82.86478252 Ha       -2254.86545869 eV
  | XC energy correction          :         -16.81893162 Ha        -457.66641523 eV
  | XC potential correction       :          21.62474858 Ha         588.43934822 eV
  | Free-atom electrostatic energy:         -71.52330930 Ha       -1946.24827011 eV
  | Hartree energy correction     :           0.00000000 Ha           0.00000000 eV
  | Entropy correction            :          -0.00020734 Ha          -0.00564190 eV
  | ---------------------------
  | Total energy                  :        -149.58227487 Ha       -4070.34079582 eV
  | Total energy, T -> 0          :        -149.58248220 Ha       -4070.34643771 eV  <-- do not rely on this value for anything but (periodic) metals
  | Electronic free energy        :        -149.58268954 Ha       -4070.35207961 eV

  Derived energy quantities:
  | Kinetic energy                :         150.54623332 Ha        4096.57143998 eV
  | Electrostatic energy          :        -283.30957657 Ha       -7709.24582056 eV
  | Energy correction for multipole
  | error in Hartree potential    :           0.00000000 Ha           0.00000000 eV
  | Sum of eigenvalues per atom                           :       -1127.43272935 eV
  | Total energy (T->0) per atom                          :       -2035.17321886 eV  <-- do not rely on this value for anything but (periodic) metals
  | Electronic free energy per atom                       :       -2035.17603980 eV
  Initialize hartree_potential_storage
  Max. number of atoms included in rho_multipole:            2

  End scf initialization - timings             :  max(cpu_time)    wall_clock(cpu1)
  | Time for scf. initialization               :        0.121 s           0.120 s
  | Boundary condition initialization          :        0.001 s           0.001 s
  | Integration                                :        0.059 s           0.059 s
  | Solution of K.-S. eqns.                    :        0.001 s           0.001 s
  | Grid partitioning                          :        0.021 s           0.022 s
  | Preloading free-atom quantities on grid    :        0.016 s           0.016 s
  | Free-atom superposition energy             :        0.009 s           0.009 s
  | Total energy evaluation                    :        0.000 s           0.002 s
------------------------------------------------------------

------------------------------------------------------------
          Initial SCF-cycle to compute last known
          density from restart information.

  Date     :  20190722, Time     :  144439.378
------------------------------------------------------------
*** scf_solver:charge expected kweighted occ_numbers
*** sum(occ_numbers) =  1.6000000000000000E+01 instead of  1.5000000000000000E+01
  Evaluating new KS density.
*** update_density_and_forces_p2 expected kweighted occ_numbers
*** sum(occ_numbers) =  1.6000000000000000E+01 instead of  1.5000000000000000E+01
  Integration grid: deviation in total charge (<rho> - N_e) =   1.000000E+00

  Evaluating partitioned Hartree potential by multipole expansion.
  | Analytical far-field extrapolation by fixed multipoles:
  | Hartree multipole sum: apparent total charge =  -0.105740E-06
  Summing up the Hartree potential.
  Time summed over all CPUs for potential: real work        0.097 s, elapsed        0.098 s
  | RMS charge density error from multipole expansion :   0.641540E-03

  Integrating Hamiltonian matrix: batch-based integration.
  Time summed over all CPUs for integration: real work        0.165 s, elapsed        0.165 s

  Updating Kohn-Sham eigenvalues, eigenvectors, occupation numbers, and Fermi level.
  Solving generalized eigenproblem
  Updating Kohn-Sham eigenvalues and eigenfunctions.
  Transforming overlap matrix and checking for singularities.
  Overlap matrix is nonsingular:
  | Lowest eigenvalue:  0.187908E-03
  Solving real generalised eigenvalue problem by standard LAPACK (fast)
  Determining occupation numbers for Kohn-Sham eigenstates.
  | Chemical potential (Fermi level) in eV                 : -.51134999E+01
  | Error in electron count due to remaining E_F inaccuracy: -.60480865E-09
  | Maximum occupation number of highest empty state:  0.00E+00

  Highest occupied state (VBM) at    -13.45685410 eV
  | Occupation number:      2.00000000

  Lowest unoccupied state (CBM) at    -5.10873071 eV
  | Occupation number:      0.50001542

  Overall HOMO-LUMO gap:      8.34812339 eV.

  Total energy components:
  | Sum of eigenvalues            :         -82.67704127 Ha       -2249.75675932 eV
  | XC energy correction          :         -16.91326486 Ha        -460.23335338 eV
  | XC potential correction       :          21.74738709 Ha         591.77651195 eV
  | Free-atom electrostatic energy:         -71.52330930 Ha       -1946.24827011 eV
  | Hartree energy correction     :          -0.64804642 Ha         -17.63424019 eV
  | Entropy correction            :          -0.00016515 Ha          -0.00449404 eV
  | ---------------------------
  | Total energy                  :        -150.01427476 Ha       -4082.09611106 eV
  | Total energy, T -> 0          :        -150.01443992 Ha       -4082.10060510 eV  <-- do not rely on this value for anything but (periodic) metals
  | Electronic free energy        :        -150.01460507 Ha       -4082.10509914 eV

  Derived energy quantities:
  | Kinetic energy                :         150.38318669 Ha        4092.13471528 eV
  | Electrostatic energy          :        -283.48419659 Ha       -7713.99747297 eV
  | Energy correction for multipole
  | error in Hartree potential    :          -0.00058630 Ha          -0.01595412 eV
  | Sum of eigenvalues per atom                           :       -1124.87837966 eV
  | Total energy (T->0) per atom                          :       -2041.05030255 eV  <-- do not rely on this value for anything but (periodic) metals
  | Electronic free energy per atom                       :       -2041.05254957 eV

  Self-consistency convergence accuracy:
  | Change of charge density      :  0.1358E+00
  | Change of sum of eigenvalues  :  0.5109E+01 eV
  | Change of total energy        : -0.1176E+02 eV

  End self-consistency iteration #     0       :  max(cpu_time)    wall_clock(cpu1)
  | Time for this iteration                    :        0.114 s           0.113 s
  | Charge density update                      :        0.033 s           0.031 s
  | Density mixing                             :        0.000 s           0.000 s
  | Hartree multipole update                   :        0.004 s           0.004 s
  | Hartree multipole summation                :        0.026 s           0.026 s
  | Integration                                :        0.042 s           0.042 s
  | Solution of K.-S. eqns.                    :        0.007 s           0.007 s
  | Total energy evaluation                    :        0.001 s           0.001 s
------------------------------------------------------------

------------------------------------------------------------
          Begin self-consistency iteration #    1

  Date     :  20190722, Time     :  144439.492
------------------------------------------------------------
  Evaluating new KS density.
  Integration grid: deviation in total charge (<rho> - N_e) =  -6.049703E-10
  Pulay mixing of updated and previous charge densities.

  Evaluating partitioned Hartree potential by multipole expansion.
  | Analytical far-field extrapolation by fixed multipoles:
  | Hartree multipole sum: apparent total charge =   0.200000E+00
  Summing up the Hartree potential.
  Time summed over all CPUs for potential: real work        0.096 s, elapsed        0.096 s
  | RMS charge density error from multipole expansion :   0.565000E-03

  Integrating Hamiltonian matrix: batch-based integration.
  Time summed over all CPUs for integration: real work        0.165 s, elapsed        0.165 s

  Updating Kohn-Sham eigenvalues, eigenvectors, occupation numbers, and Fermi level.
  Solving generalized eigenproblem
  Updating Kohn-Sham eigenvalues and eigenfunctions.
  Solving real generalised eigenvalue problem by standard LAPACK (fast)
  Determining occupation numbers for Kohn-Sham eigenstates.
  | Chemical potential (Fermi level) in eV                 : -.81945810E+01
  | Error in electron count due to remaining E_F inaccuracy: -.22259936E-08
  | Maximum occupation number of highest empty state:  0.00E+00

  Writing Kohn-Sham eigenvalues.

  State    Occupation    Eigenvalue [Ha]    Eigenvalue [eV]
      1       2.00000         -19.044923         -518.23873
      2       2.00000         -19.044711         -518.23296
      3       2.00000          -1.389020          -37.79715
      4       2.00000          -0.813688          -22.14157
      5       2.00000          -0.615386          -16.74550
      6       2.00000          -0.615386          -16.74550
      7       2.00000          -0.605900          -16.48737
      8       0.50014          -0.300970           -8.18981
      9       0.49986          -0.300970           -8.18981
     10       0.00000           0.042824            1.16530
     11       0.00000           0.049510            1.34724
     12       0.00000           0.078302            2.13071
     13       0.00000           0.078302            2.13071
     14       0.00000           0.157571            4.28773

  Highest occupied state (VBM) at    -16.48736867 eV
  | Occupation number:      2.00000000

  Lowest unoccupied state (CBM) at    -8.18981321 eV
  | Occupation number:      0.50013728

  Overall HOMO-LUMO gap:      8.29755545 eV.

  Total energy components:
  | Sum of eigenvalues            :         -84.55899688 Ha       -2300.96737697 eV
  | XC energy correction          :         -16.76082686 Ha        -456.08530430 eV
  | XC potential correction       :          21.54777003 Ha         586.34465549 eV
  | Free-atom electrostatic energy:         -71.52330930 Ha       -1946.24827011 eV
  | Hartree energy correction     :           1.37746241 Ha          37.48265931 eV
  | Entropy correction            :          -0.00016515 Ha          -0.00449404 eV
  | ---------------------------
  | Total energy                  :        -149.91790060 Ha       -4079.47363657 eV
  | Total energy, T -> 0          :        -149.91806575 Ha       -4079.47813061 eV  <-- do not rely on this value for anything but (periodic) metals
  | Electronic free energy        :        -149.91823090 Ha       -4079.48262465 eV

  Derived energy quantities:
  | Kinetic energy                :         149.83027167 Ha        4077.08913204 eV
  | Electrostatic energy          :        -282.98734540 Ha       -7700.47746431 eV
  | Energy correction for multipole
  | error in Hartree potential    :          -0.00047101 Ha          -0.01281671 eV
  | Sum of eigenvalues per atom                           :       -1150.48368848 eV
  | Total energy (T->0) per atom                          :       -2039.73906531 eV  <-- do not rely on this value for anything but (periodic) metals
  | Electronic free energy per atom                       :       -2039.74131233 eV

  Self-consistency convergence accuracy:
  | Change of charge density      :  0.2168E+00
  | Change of sum of eigenvalues  : -0.5121E+02 eV
  | Change of total energy        :  0.2622E+01 eV

  End self-consistency iteration #     1       :  max(cpu_time)    wall_clock(cpu1)
  | Time for this iteration                    :        0.104 s           0.103 s
  | Charge density update                      :        0.030 s           0.029 s
  | Density mixing                             :        0.001 s           0.001 s
  | Hartree multipole update                   :        0.004 s           0.004 s
  | Hartree multipole summation                :        0.025 s           0.025 s
  | Integration                                :        0.042 s           0.042 s
  | Solution of K.-S. eqns.                    :        0.001 s           0.001 s
  | Total energy evaluation                    :        0.000 s           0.001 s
------------------------------------------------------------

------------------------------------------------------------
          Begin self-consistency iteration #    2

  Date     :  20190722, Time     :  144439.596
------------------------------------------------------------
  Evaluating new KS density.
  Integration grid: deviation in total charge (<rho> - N_e) =  -2.225875E-09
  Pulay mixing of updated and previous charge densities.

  Evaluating partitioned Hartree potential by multipole expansion.
  | Analytical far-field extrapolation by fixed multipoles:
  | Hartree multipole sum: apparent total charge =   0.551838E+00
  Summing up the Hartree potential.
  Time summed over all CPUs for potential: real work        0.096 s, elapsed        0.096 s
  | RMS charge density error from multipole expansion :   0.496622E-03

  Integrating Hamiltonian matrix: batch-based integration.
  Time summed over all CPUs for integration: real work        0.164 s, elapsed        0.165 s

  Updating Kohn-Sham eigenvalues, eigenvectors, occupation numbers, and Fermi level.
  Solving generalized eigenproblem
  Updating Kohn-Sham eigenvalues and eigenfunctions.
  Solving real generalised eigenvalue problem by standard LAPACK (fast)
  Determining occupation numbers for Kohn-Sham eigenstates.
  | Chemical potential (Fermi level) in eV                 : -.13115799E+02
  | Error in electron count due to remaining E_F inaccuracy: -.79936058E-13
  | Maximum occupation number of highest empty state:  0.00E+00

  Highest occupied state (VBM) at    -21.30662702 eV
  | Occupation number:      2.00000000

  Lowest unoccupied state (CBM) at   -13.11106162 eV
  | Occupation number:      0.50285087

  Overall HOMO-LUMO gap:      8.19556540 eV.

  Total energy components:
  | Sum of eigenvalues            :         -87.46851609 Ha       -2380.13942293 eV
  | XC energy correction          :         -16.54641104 Ha        -450.25075294 eV
  | XC potential correction       :          21.26696428 Ha         578.70354229 eV
  | Free-atom electrostatic energy:         -71.52330930 Ha       -1946.24827011 eV
  | Hartree energy correction     :           4.44645478 Ha         120.99419079 eV
  | Entropy correction            :          -0.00016515 Ha          -0.00449399 eV
  | ---------------------------
  | Total energy                  :        -149.82481736 Ha       -4076.94071291 eV
  | Total energy, T -> 0          :        -149.82498251 Ha       -4076.94520690 eV  <-- do not rely on this value for anything but (periodic) metals
  | Electronic free energy        :        -149.82514767 Ha       -4076.94970089 eV

  Derived energy quantities:
  | Kinetic energy                :         149.13534515 Ha        4058.17921943 eV
  | Electrostatic energy          :        -282.41375147 Ha       -7684.86917939 eV
  | Energy correction for multipole
  | error in Hartree potential    :          -0.00036521 Ha          -0.00993784 eV
  | Sum of eigenvalues per atom                           :       -1190.06971147 eV
  | Total energy (T->0) per atom                          :       -2038.47260345 eV  <-- do not rely on this value for anything but (periodic) metals
  | Electronic free energy per atom                       :       -2038.47485045 eV

  Self-consistency convergence accuracy:
  | Change of charge density      :  0.1326E+00
  | Change of sum of eigenvalues  : -0.7917E+02 eV
  | Change of total energy        :  0.2533E+01 eV

  End self-consistency iteration #     2       :  max(cpu_time)    wall_clock(cpu1)
  | Time for this iteration                    :        0.103 s           0.103 s
  | Charge density update                      :        0.029 s           0.029 s
  | Density mixing                             :        0.002 s           0.002 s
  | Hartree multipole update                   :        0.004 s           0.004 s
  | Hartree multipole summation                :        0.026 s           0.025 s
  | Integration                                :        0.042 s           0.041 s
  | Solution of K.-S. eqns.                    :        0.001 s           0.001 s
  | Total energy evaluation                    :        0.000 s           0.000 s
------------------------------------------------------------

------------------------------------------------------------
          Begin self-consistency iteration #    3

  Date     :  20190722, Time     :  144439.701
------------------------------------------------------------
  Evaluating new KS density.
  Integration grid: deviation in total charge (<rho> - N_e) =  -1.385558E-13
  Pulay mixing of updated and previous charge densities.

  Evaluating partitioned Hartree potential by multipole expansion.
  | Analytical far-field extrapolation by fixed multipoles:
  | Hartree multipole sum: apparent total charge =   0.102376E+01
  Summing up the Hartree potential.
  Time summed over all CPUs for potential: real work        0.095 s, elapsed        0.096 s
  | RMS charge density error from multipole expansion :   0.482774E-03

  Integrating Hamiltonian matrix: batch-based integration.
  Time summed over all CPUs for integration: real work        0.164 s, elapsed        0.164 s

  Updating Kohn-Sham eigenvalues, eigenvectors, occupation numbers, and Fermi level.
  Solving generalized eigenproblem
  Updating Kohn-Sham eigenvalues and eigenfunctions.
  Solving real generalised eigenvalue problem by standard LAPACK (fast)
  Determining occupation numbers for Kohn-Sham eigenstates.
  | Chemical potential (Fermi level) in eV                 : -.18067043E+02
  | Error in electron count due to remaining E_F inaccuracy: -.25516123E-09
  | Maximum occupation number of highest empty state:  0.00E+00

  Highest occupied state (VBM) at    -26.18579482 eV
  | Occupation number:      2.00000000

  Lowest unoccupied state (CBM) at   -18.06379515 eV
  | Occupation number:      0.64605591

  Overall HOMO-LUMO gap:      8.12199968 eV.

  Total energy components:
  | Sum of eigenvalues            :         -90.16127074 Ha       -2453.41300519 eV
  | XC energy correction          :         -16.41514759 Ha        -446.67889265 eV
  | XC potential correction       :          21.09496213 Ha         574.02312540 eV
  | Free-atom electrostatic energy:         -71.52330930 Ha       -1946.24827011 eV
  | Hartree energy correction     :           7.21102196 Ha         196.22189108 eV
  | Entropy correction            :          -0.00016075 Ha          -0.00437434 eV
  | ---------------------------
  | Total energy                  :        -149.79374355 Ha       -4076.09515148 eV
  | Total energy, T -> 0          :        -149.79390431 Ha       -4076.09952582 eV  <-- do not rely on this value for anything but (periodic) metals
  | Electronic free energy        :        -149.79406506 Ha       -4076.10390016 eV

  Derived energy quantities:
  | Kinetic energy                :         149.26265720 Ha        4061.64355664 eV
  | Electrostatic energy          :        -282.64125317 Ha       -7691.05981546 eV
  | Energy correction for multipole
  | error in Hartree potential    :          -0.00051965 Ha          -0.01414039 eV
  | Sum of eigenvalues per atom                           :       -1226.70650260 eV
  | Total energy (T->0) per atom                          :       -2038.04976291 eV  <-- do not rely on this value for anything but (periodic) metals
  | Electronic free energy per atom                       :       -2038.05195008 eV

  Self-consistency convergence accuracy:
  | Change of charge density      :  0.5888E-01
  | Change of sum of eigenvalues  : -0.7327E+02 eV
  | Change of total energy        :  0.8456E+00 eV

  End self-consistency iteration #     3       :  max(cpu_time)    wall_clock(cpu1)
  | Time for this iteration                    :        0.103 s           0.102 s
  | Charge density update                      :        0.030 s           0.029 s
  | Density mixing                             :        0.002 s           0.002 s
  | Hartree multipole update                   :        0.004 s           0.003 s
  | Hartree multipole summation                :        0.025 s           0.025 s
  | Integration                                :        0.041 s           0.041 s
  | Solution of K.-S. eqns.                    :        0.001 s           0.001 s
  | Total energy evaluation                    :        0.000 s           0.000 s
------------------------------------------------------------

------------------------------------------------------------
          Begin self-consistency iteration #    4

  Date     :  20190722, Time     :  144439.805
------------------------------------------------------------
  Evaluating new KS density.
  Integration grid: deviation in total charge (<rho> - N_e) =  -2.556142E-10
  Pulay mixing of updated and previous charge densities.

  Evaluating partitioned Hartree potential by multipole expansion.
  | Analytical far-field extrapolation by fixed multipoles:
  | Hartree multipole sum: apparent total charge =   0.102299E+01
  Summing up the Hartree potential.
  Time summed over all CPUs for potential: real work        0.095 s, elapsed        0.096 s
  | RMS charge density error from multipole expansion :   0.482561E-03

  Integrating Hamiltonian matrix: batch-based integration.
  Time summed over all CPUs for integration: real work        0.164 s, elapsed        0.164 s

  Updating Kohn-Sham eigenvalues, eigenvectors, occupation numbers, and Fermi level.
  Solving generalized eigenproblem
  Updating Kohn-Sham eigenvalues and eigenfunctions.
  Solving real generalised eigenvalue problem by standard LAPACK (fast)
  Determining occupation numbers for Kohn-Sham eigenstates.
  | Chemical potential (Fermi level) in eV                 : -.18024844E+02
  | Error in electron count due to remaining E_F inaccuracy: 0.38564707E-11
  | Maximum occupation number of highest empty state:  0.00E+00

  Highest occupied state (VBM) at    -26.14539805 eV
  | Occupation number:      2.00000000

  Lowest unoccupied state (CBM) at   -18.02043793 eV
  | Occupation number:      0.53318889

  Overall HOMO-LUMO gap:      8.12496012 eV.

  Total energy components:
  | Sum of eigenvalues            :         -90.13289619 Ha       -2452.64089428 eV
  | XC energy correction          :         -16.41836377 Ha        -446.76640934 eV
  | XC potential correction       :          21.09917485 Ha         574.13775950 eV
  | Free-atom electrostatic energy:         -71.52330930 Ha       -1946.24827011 eV
  | Hartree energy correction     :           7.18177115 Ha         195.42593629 eV
  | Entropy correction            :          -0.00016493 Ha          -0.00448791 eV
  | ---------------------------
  | Total energy                  :        -149.79362325 Ha       -4076.09187795 eV
  | Total energy, T -> 0          :        -149.79378818 Ha       -4076.09636585 eV  <-- do not rely on this value for anything but (periodic) metals
  | Electronic free energy        :        -149.79395311 Ha       -4076.10085376 eV

  Derived energy quantities:
  | Kinetic energy                :         149.28589739 Ha        4062.27595423 eV
  | Electrostatic energy          :        -282.66115687 Ha       -7691.60142283 eV
  | Energy correction for multipole
  | error in Hartree potential    :          -0.00052455 Ha          -0.01427379 eV
  | Sum of eigenvalues per atom                           :       -1226.32044714 eV
  | Total energy (T->0) per atom                          :       -2038.04818293 eV  <-- do not rely on this value for anything but (periodic) metals
  | Electronic free energy per atom                       :       -2038.05042688 eV

  Self-consistency convergence accuracy:
  | Change of charge density      :  0.5602E-01
  | Change of sum of eigenvalues  :  0.7721E+00 eV
  | Change of total energy        :  0.3274E-02 eV

  End self-consistency iteration #     4       :  max(cpu_time)    wall_clock(cpu1)
  | Time for this iteration                    :        0.103 s           0.102 s
  | Charge density update                      :        0.030 s           0.029 s
  | Density mixing                             :        0.002 s           0.002 s
  | Hartree multipole update                   :        0.005 s           0.003 s
  | Hartree multipole summation                :        0.025 s           0.025 s
  | Integration                                :        0.041 s           0.041 s
  | Solution of K.-S. eqns.                    :        0.001 s           0.001 s
  | Total energy evaluation                    :        0.000 s           0.000 s
------------------------------------------------------------

------------------------------------------------------------
          Begin self-consistency iteration #    5

  Date     :  20190722, Time     :  144439.909
------------------------------------------------------------
  Evaluating new KS density.
  Integration grid: deviation in total charge (<rho> - N_e) =   3.399947E-12
  Pulay mixing of updated and previous charge densities.

  Evaluating partitioned Hartree potential by multipole expansion.
  | Analytical far-field extrapolation by fixed multipoles:
  | Hartree multipole sum: apparent total charge =   0.993583E+00
  Summing up the Hartree potential.
  Time summed over all CPUs for potential: real work        0.096 s, elapsed        0.097 s
  | RMS charge density error from multipole expansion :   0.479804E-03

  Integrating Hamiltonian matrix: batch-based integration.
  Time summed over all CPUs for integration: real work        0.164 s, elapsed        0.164 s

  Updating Kohn-Sham eigenvalues, eigenvectors, occupation numbers, and Fermi level.
  Solving generalized eigenproblem
  Updating Kohn-Sham eigenvalues and eigenfunctions.
  Solving real generalised eigenvalue problem by standard LAPACK (fast)
  Determining occupation numbers for Kohn-Sham eigenstates.
  | Chemical potential (Fermi level) in eV                 : -.17506883E+02
  | Error in electron count due to remaining E_F inaccuracy: -.39932502E-11
  | Maximum occupation number of highest empty state:  0.00E+00

  Highest occupied state (VBM) at    -25.64137133 eV
  | Occupation number:      2.00000000

  Lowest unoccupied state (CBM) at   -17.50212317 eV
  | Occupation number:      0.50082862

  Overall HOMO-LUMO gap:      8.13924815 eV.

  Total energy components:
  | Sum of eigenvalues            :         -89.81745912 Ha       -2444.05741495 eV
  | XC energy correction          :         -16.44486865 Ha        -447.48764375 eV
  | XC potential correction       :          21.13388633 Ha         575.08230679 eV
  | Free-atom electrostatic energy:         -71.52330930 Ha       -1946.24827011 eV
  | Hartree energy correction     :           6.85865852 Ha         186.63359405 eV
  | Entropy correction            :          -0.00016515 Ha          -0.00449404 eV
  | ---------------------------
  | Total energy                  :        -149.79309223 Ha       -4076.07742799 eV
  | Total energy, T -> 0          :        -149.79325738 Ha       -4076.08192202 eV  <-- do not rely on this value for anything but (periodic) metals
  | Electronic free energy        :        -149.79342253 Ha       -4076.08641606 eV

  Derived energy quantities:
  | Kinetic energy                :         149.42491583 Ha        4066.05883861 eV
  | Electrostatic energy          :        -282.77313941 Ha       -7694.64862284 eV
  | Energy correction for multipole
  | error in Hartree potential    :          -0.00054636 Ha          -0.01486721 eV
  | Sum of eigenvalues per atom                           :       -1222.02870748 eV
  | Total energy (T->0) per atom                          :       -2038.04096101 eV  <-- do not rely on this value for anything but (periodic) metals
  | Electronic free energy per atom                       :       -2038.04320803 eV

  Self-consistency convergence accuracy:
  | Change of charge density      :  0.2446E-01
  | Change of sum of eigenvalues  :  0.8583E+01 eV
  | Change of total energy        :  0.1445E-01 eV

  End self-consistency iteration #     5       :  max(cpu_time)    wall_clock(cpu1)
  | Time for this iteration                    :        0.104 s           0.103 s
  | Charge density update                      :        0.030 s           0.029 s
  | Density mixing                             :        0.002 s           0.002 s
  | Hartree multipole update                   :        0.004 s           0.004 s
  | Hartree multipole summation                :        0.025 s           0.024 s
  | Integration                                :        0.042 s           0.042 s
  | Solution of K.-S. eqns.                    :        0.001 s           0.001 s
  | Total energy evaluation                    :        0.000 s           0.001 s
------------------------------------------------------------

------------------------------------------------------------
          Begin self-consistency iteration #    6

  Date     :  20190722, Time     :  144440.013
------------------------------------------------------------
  Evaluating new KS density.
  Integration grid: deviation in total charge (<rho> - N_e) =  -4.185097E-12
  Pulay mixing of updated and previous charge densities.

  Evaluating partitioned Hartree potential by multipole expansion.
  | Analytical far-field extrapolation by fixed multipoles:
  | Hartree multipole sum: apparent total charge =   0.999207E+00
  Summing up the Hartree potential.
  Time summed over all CPUs for potential: real work        0.095 s, elapsed        0.096 s
  | RMS charge density error from multipole expansion :   0.491149E-03

  Integrating Hamiltonian matrix: batch-based integration.
  Time summed over all CPUs for integration: real work        0.175 s, elapsed        0.176 s

  Updating Kohn-Sham eigenvalues, eigenvectors, occupation numbers, and Fermi level.
  Solving generalized eigenproblem
  Updating Kohn-Sham eigenvalues and eigenfunctions.
  Solving real generalised eigenvalue problem by standard LAPACK (fast)
  Determining occupation numbers for Kohn-Sham eigenstates.
  | Chemical potential (Fermi level) in eV                 : -.17469915E+02
  | Error in electron count due to remaining E_F inaccuracy: -.13674395E-10
  | Maximum occupation number of highest empty state:  0.00E+00

  Highest occupied state (VBM) at    -25.60385381 eV
  | Occupation number:      2.00000000

  Lowest unoccupied state (CBM) at   -17.46516954 eV
  | Occupation number:      0.50212027

  Overall HOMO-LUMO gap:      8.13868428 eV.

  Total energy components:
  | Sum of eigenvalues            :         -89.79194816 Ha       -2443.36322637 eV
  | XC energy correction          :         -16.45028507 Ha        -447.63503218 eV
  | XC potential correction       :          21.14108738 Ha         575.27825756 eV
  | Free-atom electrostatic energy:         -71.52330930 Ha       -1946.24827011 eV
  | Hartree energy correction     :           6.83138605 Ha         185.89147244 eV
  | Entropy correction            :          -0.00016515 Ha          -0.00449401 eV
  | ---------------------------
  | Total energy                  :        -149.79306910 Ha       -4076.07679866 eV
  | Total energy, T -> 0          :        -149.79323425 Ha       -4076.08129267 eV  <-- do not rely on this value for anything but (periodic) metals
  | Electronic free energy        :        -149.79339940 Ha       -4076.08578669 eV

  Derived energy quantities:
  | Kinetic energy                :         149.44472010 Ha        4066.59774007 eV
  | Electrostatic energy          :        -282.78750413 Ha       -7695.03950655 eV
  | Energy correction for multipole
  | error in Hartree potential    :          -0.00053838 Ha          -0.01465009 eV
  | Sum of eigenvalues per atom                           :       -1221.68161318 eV
  | Total energy (T->0) per atom                          :       -2038.04064634 eV  <-- do not rely on this value for anything but (periodic) metals
  | Electronic free energy per atom                       :       -2038.04289334 eV

  Self-consistency convergence accuracy:
  | Change of charge density      :  0.6645E-02
  | Change of sum of eigenvalues  :  0.6942E+00 eV
  | Change of total energy        :  0.6293E-03 eV

  End self-consistency iteration #     6       :  max(cpu_time)    wall_clock(cpu1)
  | Time for this iteration                    :        0.111 s           0.111 s
  | Charge density update                      :        0.029 s           0.029 s
  | Density mixing                             :        0.003 s           0.003 s
  | Hartree multipole update                   :        0.004 s           0.003 s
  | Hartree multipole summation                :        0.025 s           0.025 s
  | Integration                                :        0.045 s           0.045 s
  | Solution of K.-S. eqns.                    :        0.004 s           0.004 s
  | Total energy evaluation                    :        0.001 s           0.001 s
------------------------------------------------------------

------------------------------------------------------------
          Begin self-consistency iteration #    7

  Date     :  20190722, Time     :  144440.126
------------------------------------------------------------
  Evaluating new KS density.
  Integration grid: deviation in total charge (<rho> - N_e) =  -1.350564E-11
  Pulay mixing of updated and previous charge densities.

  Evaluating partitioned Hartree potential by multipole expansion.
  | Analytical far-field extrapolation by fixed multipoles:
  | Hartree multipole sum: apparent total charge =   0.999661E+00
  Summing up the Hartree potential.
  Time summed over all CPUs for potential: real work        0.096 s, elapsed        0.097 s
  | RMS charge density error from multipole expansion :   0.491849E-03

  Integrating Hamiltonian matrix: batch-based integration.
  Time summed over all CPUs for integration: real work        0.166 s, elapsed        0.167 s

  Updating Kohn-Sham eigenvalues, eigenvectors, occupation numbers, and Fermi level.
  Solving generalized eigenproblem
  Updating Kohn-Sham eigenvalues and eigenfunctions.
  Solving real generalised eigenvalue problem by standard LAPACK (fast)
  Determining occupation numbers for Kohn-Sham eigenstates.
  | Chemical potential (Fermi level) in eV                 : -.17471796E+02
  | Error in electron count due to remaining E_F inaccuracy: -.93258734E-12
  | Maximum occupation number of highest empty state:  0.00E+00

  Highest occupied state (VBM) at    -25.60718501 eV
  | Occupation number:      2.00000000

  Lowest unoccupied state (CBM) at   -17.46707380 eV
  | Occupation number:      0.50421732

  Overall HOMO-LUMO gap:      8.14011120 eV.

  Total energy components:
  | Sum of eigenvalues            :         -89.79326200 Ha       -2443.39897791 eV
  | XC energy correction          :         -16.45017651 Ha        -447.63207813 eV
  | XC potential correction       :          21.14095695 Ha         575.27470839 eV
  | Free-atom electrostatic energy:         -71.52330930 Ha       -1946.24827011 eV
  | Hartree energy correction     :           6.83272188 Ha         185.92782231 eV
  | Entropy correction            :          -0.00016515 Ha          -0.00449394 eV
  | ---------------------------
  | Total energy                  :        -149.79306898 Ha       -4076.07679546 eV
  | Total energy, T -> 0          :        -149.79323413 Ha       -4076.08128940 eV  <-- do not rely on this value for anything but (periodic) metals
  | Electronic free energy        :        -149.79339928 Ha       -4076.08578334 eV

  Derived energy quantities:
  | Kinetic energy                :         149.44204576 Ha        4066.52496775 eV
  | Electrostatic energy          :        -282.78493823 Ha       -7694.96968508 eV
  | Energy correction for multipole
  | error in Hartree potential    :          -0.00053686 Ha          -0.01460862 eV
  | Sum of eigenvalues per atom                           :       -1221.69948896 eV
  | Total energy (T->0) per atom                          :       -2038.04064470 eV  <-- do not rely on this value for anything but (periodic) metals
  | Electronic free energy per atom                       :       -2038.04289167 eV

  Self-consistency convergence accuracy:
  | Change of charge density      :  0.9671E-03
  | Change of sum of eigenvalues  : -0.3575E-01 eV
  | Change of total energy        :  0.3202E-05 eV

  End self-consistency iteration #     7       :  max(cpu_time)    wall_clock(cpu1)
  | Time for this iteration                    :        0.107 s           0.106 s
  | Charge density update                      :        0.030 s           0.029 s
  | Density mixing                             :        0.003 s           0.003 s
  | Hartree multipole update                   :        0.004 s           0.003 s
  | Hartree multipole summation                :        0.025 s           0.025 s
  | Integration                                :        0.042 s           0.042 s
  | Solution of K.-S. eqns.                    :        0.002 s           0.002 s
  | Total energy evaluation                    :        0.000 s           0.000 s
------------------------------------------------------------

------------------------------------------------------------
          Begin self-consistency iteration #    8

  Date     :  20190722, Time     :  144440.233
------------------------------------------------------------
  Evaluating new KS density.
  Integration grid: deviation in total charge (<rho> - N_e) =  -6.181722E-13
  Pulay mixing of updated and previous charge densities.

  Evaluating partitioned Hartree potential by multipole expansion.
  | Analytical far-field extrapolation by fixed multipoles:
  | Hartree multipole sum: apparent total charge =   0.999899E+00
  Summing up the Hartree potential.
  Time summed over all CPUs for potential: real work        0.095 s, elapsed        0.096 s
  | RMS charge density error from multipole expansion :   0.492354E-03

  Integrating Hamiltonian matrix: batch-based integration.
  Time summed over all CPUs for integration: real work        0.165 s, elapsed        0.165 s

  Updating Kohn-Sham eigenvalues, eigenvectors, occupation numbers, and Fermi level.
  Solving generalized eigenproblem
  Updating Kohn-Sham eigenvalues and eigenfunctions.
  Solving real generalised eigenvalue problem by standard LAPACK (fast)
  Determining occupation numbers for Kohn-Sham eigenstates.
  | Chemical potential (Fermi level) in eV                 : -.17468275E+02
  | Error in electron count due to remaining E_F inaccuracy: -.25243807E-10
  | Maximum occupation number of highest empty state:  0.00E+00

  Highest occupied state (VBM) at    -25.60409002 eV
  | Occupation number:      2.00000000

  Lowest unoccupied state (CBM) at   -17.46354427 eV
  | Occupation number:      0.50348817

  Overall HOMO-LUMO gap:      8.14054575 eV.

  Total energy components:
  | Sum of eigenvalues            :         -89.79085303 Ha       -2443.33342649 eV
  | XC energy correction          :         -16.45054415 Ha        -447.64208214 eV
  | XC potential correction       :          21.14144458 Ha         575.28797726 eV
  | Free-atom electrostatic energy:         -71.52330930 Ha       -1946.24827011 eV
  | Hartree energy correction     :           6.83019315 Ha         185.85901207 eV
  | Entropy correction            :          -0.00016515 Ha          -0.00449397 eV
  | ---------------------------
  | Total energy                  :        -149.79306876 Ha       -4076.07678940 eV
  | Total energy, T -> 0          :        -149.79323391 Ha       -4076.08128337 eV  <-- do not rely on this value for anything but (periodic) metals
  | Electronic free energy        :        -149.79339906 Ha       -4076.08577734 eV

  Derived energy quantities:
  | Kinetic energy                :         149.44369149 Ha        4066.56975014 eV
  | Electrostatic energy          :        -282.78621609 Ha       -7695.00445740 eV
  | Energy correction for multipole
  | error in Hartree potential    :          -0.00053661 Ha          -0.01460202 eV
  | Sum of eigenvalues per atom                           :       -1221.66671324 eV
  | Total energy (T->0) per atom                          :       -2038.04064169 eV  <-- do not rely on this value for anything but (periodic) metals
  | Electronic free energy per atom                       :       -2038.04288867 eV

  Self-consistency convergence accuracy:
  | Change of charge density      :  0.1567E-02
  | Change of sum of eigenvalues  :  0.6555E-01 eV
  | Change of total energy        :  0.6053E-05 eV

  End self-consistency iteration #     8       :  max(cpu_time)    wall_clock(cpu1)
  | Time for this iteration                    :        0.104 s           0.104 s
  | Charge density update                      :        0.029 s           0.029 s
  | Density mixing                             :        0.004 s           0.003 s
  | Hartree multipole update                   :        0.003 s           0.003 s
  | Hartree multipole summation                :        0.025 s           0.025 s
  | Integration                                :        0.042 s           0.042 s
  | Solution of K.-S. eqns.                    :        0.001 s           0.001 s
  | Total energy evaluation                    :        0.001 s           0.000 s
------------------------------------------------------------

------------------------------------------------------------
          Begin self-consistency iteration #    9

  Date     :  20190722, Time     :  144440.339
------------------------------------------------------------
  Evaluating new KS density.
  Integration grid: deviation in total charge (<rho> - N_e) =  -2.522071E-11
  Pulay mixing of updated and previous charge densities.

  Evaluating partitioned Hartree potential by multipole expansion.
  | Analytical far-field extrapolation by fixed multipoles:
  | Hartree multipole sum: apparent total charge =   0.100006E+01
  Summing up the Hartree potential.
  Time summed over all CPUs for potential: real work        0.095 s, elapsed        0.096 s
  | RMS charge density error from multipole expansion :   0.492694E-03

  Integrating Hamiltonian matrix: batch-based integration.
  Time summed over all CPUs for integration: real work        0.164 s, elapsed        0.164 s

  Updating Kohn-Sham eigenvalues, eigenvectors, occupation numbers, and Fermi level.
  Solving generalized eigenproblem
  Updating Kohn-Sham eigenvalues and eigenfunctions.
  Solving real generalised eigenvalue problem by standard LAPACK (fast)
  Determining occupation numbers for Kohn-Sham eigenstates.
  | Chemical potential (Fermi level) in eV                 : -.17465772E+02
  | Error in electron count due to remaining E_F inaccuracy: -.14592061E-09
  | Maximum occupation number of highest empty state:  0.00E+00

  Highest occupied state (VBM) at    -25.60185986 eV
  | Occupation number:      2.00000000

  Lowest unoccupied state (CBM) at   -17.46100570 eV
  | Occupation number:      0.50027847

  Overall HOMO-LUMO gap:      8.14085416 eV.

  Total energy components:
  | Sum of eigenvalues            :         -89.78914409 Ha       -2443.28692384 eV
  | XC energy correction          :         -16.45080218 Ha        -447.64910348 eV
  | XC potential correction       :          21.14178660 Ha         575.29728419 eV
  | Free-atom electrostatic energy:         -71.52330930 Ha       -1946.24827011 eV
  | Hartree energy correction     :           6.82840029 Ha         185.81022578 eV
  | Entropy correction            :          -0.00016515 Ha          -0.00449404 eV
  | ---------------------------
  | Total energy                  :        -149.79306869 Ha       -4076.07678747 eV
  | Total energy, T -> 0          :        -149.79323384 Ha       -4076.08128151 eV  <-- do not rely on this value for anything but (periodic) metals
  | Electronic free energy        :        -149.79339899 Ha       -4076.08577555 eV

  Derived energy quantities:
  | Kinetic energy                :         149.44487683 Ha        4066.60200501 eV
  | Electrostatic energy          :        -282.78714334 Ha       -7695.02968900 eV
  | Energy correction for multipole
  | error in Hartree potential    :          -0.00053647 Ha          -0.01459803 eV
  | Sum of eigenvalues per atom                           :       -1221.64346192 eV
  | Total energy (T->0) per atom                          :       -2038.04064075 eV  <-- do not rely on this value for anything but (periodic) metals
  | Electronic free energy per atom                       :       -2038.04288777 eV

  Self-consistency convergence accuracy:
  | Change of charge density      :  0.1233E-02
  | Change of sum of eigenvalues  :  0.4650E-01 eV
  | Change of total energy        :  0.1931E-05 eV

  End self-consistency iteration #     9       :  max(cpu_time)    wall_clock(cpu1)
  | Time for this iteration                    :        0.104 s           0.104 s
  | Charge density update                      :        0.029 s           0.029 s
  | Density mixing                             :        0.003 s           0.003 s
  | Hartree multipole update                   :        0.004 s           0.003 s
  | Hartree multipole summation                :        0.025 s           0.025 s
  | Integration                                :        0.041 s           0.041 s
  | Solution of K.-S. eqns.                    :        0.001 s           0.002 s
  | Total energy evaluation                    :        0.000 s           0.001 s
------------------------------------------------------------

------------------------------------------------------------
          Begin self-consistency iteration #   10

  Date     :  20190722, Time     :  144440.445
------------------------------------------------------------
  Evaluating new KS density.
  Integration grid: deviation in total charge (<rho> - N_e) =  -1.458407E-10
  Pulay mixing of updated and previous charge densities.

  Evaluating partitioned Hartree potential by multipole expansion.
  | Analytical far-field extrapolation by fixed multipoles:
  | Hartree multipole sum: apparent total charge =   0.100004E+01
  Summing up the Hartree potential.
  Time summed over all CPUs for potential: real work        0.095 s, elapsed        0.096 s
  | RMS charge density error from multipole expansion :   0.492723E-03

  Integrating Hamiltonian matrix: batch-based integration.
  Time summed over all CPUs for integration: real work        0.164 s, elapsed        0.164 s

  Updating Kohn-Sham eigenvalues, eigenvectors, occupation numbers, and Fermi level.
  Solving generalized eigenproblem
  Updating Kohn-Sham eigenvalues and eigenfunctions.
  Solving real generalised eigenvalue problem by standard LAPACK (fast)
  Determining occupation numbers for Kohn-Sham eigenstates.
  | Chemical potential (Fermi level) in eV                 : -.17465079E+02
  | Error in electron count due to remaining E_F inaccuracy: -.20934543E-09
  | Maximum occupation number of highest empty state:  0.00E+00

  Highest occupied state (VBM) at    -25.60117280 eV
  | Occupation number:      2.00000000

  Lowest unoccupied state (CBM) at   -17.46031258 eV
  | Occupation number:      0.50025931

  Overall HOMO-LUMO gap:      8.14086023 eV.

  Total energy components:
  | Sum of eigenvalues            :         -89.78872443 Ha       -2443.27550425 eV
  | XC energy correction          :         -16.45084469 Ha        -447.65026024 eV
  | XC potential correction       :          21.14184275 Ha         575.29881224 eV
  | Free-atom electrostatic energy:         -71.52330930 Ha       -1946.24827011 eV
  | Hartree energy correction     :           6.82796699 Ha         185.79843500 eV
  | Entropy correction            :          -0.00016515 Ha          -0.00449404 eV
  | ---------------------------
  | Total energy                  :        -149.79306868 Ha       -4076.07678737 eV
  | Total energy, T -> 0          :        -149.79323384 Ha       -4076.08128141 eV  <-- do not rely on this value for anything but (periodic) metals
  | Electronic free energy        :        -149.79339899 Ha       -4076.08577545 eV

  Derived energy quantities:
  | Kinetic energy                :         149.44503858 Ha        4066.60640648 eV
  | Electrostatic energy          :        -282.78726257 Ha       -7695.03293360 eV
  | Energy correction for multipole
  | error in Hartree potential    :          -0.00053644 Ha          -0.01459718 eV
  | Sum of eigenvalues per atom                           :       -1221.63775213 eV
  | Total energy (T->0) per atom                          :       -2038.04064070 eV  <-- do not rely on this value for anything but (periodic) metals
  | Electronic free energy per atom                       :       -2038.04288772 eV

  Self-consistency convergence accuracy:
  | Change of charge density      :  0.1175E-03
  | Change of sum of eigenvalues  :  0.1142E-01 eV
  | Change of total energy        :  0.1028E-06 eV

  End self-consistency iteration #    10       :  max(cpu_time)    wall_clock(cpu1)
  | Time for this iteration                    :        0.104 s           0.104 s
  | Charge density update                      :        0.030 s           0.029 s
  | Density mixing                             :        0.002 s           0.003 s
  | Hartree multipole update                   :        0.005 s           0.003 s
  | Hartree multipole summation                :        0.025 s           0.025 s
  | Integration                                :        0.042 s           0.042 s
  | Solution of K.-S. eqns.                    :        0.001 s           0.001 s
  | Total energy evaluation                    :        0.000 s           0.001 s
------------------------------------------------------------

------------------------------------------------------------
          Begin self-consistency iteration #   11

  Date     :  20190722, Time     :  144440.550
------------------------------------------------------------
  Evaluating new KS density.
  Integration grid: deviation in total charge (<rho> - N_e) =  -2.091980E-10
  Pulay mixing of updated and previous charge densities.

  Evaluating partitioned Hartree potential by multipole expansion.
  | Analytical far-field extrapolation by fixed multipoles:
  | Hartree multipole sum: apparent total charge =   0.999993E+00
  Summing up the Hartree potential.
  Time summed over all CPUs for potential: real work        0.095 s, elapsed        0.096 s
  | RMS charge density error from multipole expansion :   0.492779E-03

  Integrating Hamiltonian matrix: batch-based integration.
  Time summed over all CPUs for integration: real work        0.164 s, elapsed        0.164 s

  Updating Kohn-Sham eigenvalues, eigenvectors, occupation numbers, and Fermi level.
  Solving generalized eigenproblem
  Updating Kohn-Sham eigenvalues and eigenfunctions.
  Solving real generalised eigenvalue problem by standard LAPACK (fast)
  Determining occupation numbers for Kohn-Sham eigenstates.
  | Chemical potential (Fermi level) in eV                 : -.17463712E+02
  | Error in electron count due to remaining E_F inaccuracy: -.39483794E-09
  | Maximum occupation number of highest empty state:  0.00E+00

  Highest occupied state (VBM) at    -25.59981207 eV
  | Occupation number:      2.00000000

  Lowest unoccupied state (CBM) at   -17.45894268 eV
  | Occupation number:      0.50000009

  Overall HOMO-LUMO gap:      8.14086939 eV.

  Total energy components:
  | Sum of eigenvalues            :         -89.78790129 Ha       -2443.25310544 eV
  | XC energy correction          :         -16.45092722 Ha        -447.65250599 eV
  | XC potential correction       :          21.14195182 Ha         575.30177997 eV
  | Free-atom electrostatic energy:         -71.52330930 Ha       -1946.24827011 eV
  | Hartree energy correction     :           6.82711731 Ha         185.77531428 eV
  | Entropy correction            :          -0.00016515 Ha          -0.00449404 eV
  | ---------------------------
  | Total energy                  :        -149.79306868 Ha       -4076.07678730 eV
  | Total energy, T -> 0          :        -149.79323383 Ha       -4076.08128134 eV  <-- do not rely on this value for anything but (periodic) metals
  | Electronic free energy        :        -149.79339899 Ha       -4076.08577538 eV

  Derived energy quantities:
  | Kinetic energy                :         149.44534130 Ha        4066.61464393 eV
  | Electrostatic energy          :        -282.78748276 Ha       -7695.03892523 eV
  | Energy correction for multipole
  | error in Hartree potential    :          -0.00053637 Ha          -0.01459528 eV
  | Sum of eigenvalues per atom                           :       -1221.62655272 eV
  | Total energy (T->0) per atom                          :       -2038.04064067 eV  <-- do not rely on this value for anything but (periodic) metals
  | Electronic free energy per atom                       :       -2038.04288769 eV

  Self-consistency convergence accuracy:
  | Change of charge density      :  0.1001E-03
  | Change of sum of eigenvalues  :  0.2240E-01 eV
  | Change of total energy        :  0.7128E-07 eV

  End self-consistency iteration #    11       :  max(cpu_time)    wall_clock(cpu1)
  | Time for this iteration                    :        0.104 s           0.104 s
  | Charge density update                      :        0.029 s           0.029 s
  | Density mixing                             :        0.003 s           0.003 s
  | Hartree multipole update                   :        0.004 s           0.004 s
  | Hartree multipole summation                :        0.025 s           0.025 s
  | Integration                                :        0.042 s           0.041 s
  | Solution of K.-S. eqns.                    :        0.001 s           0.001 s
  | Total energy evaluation                    :        0.000 s           0.001 s
------------------------------------------------------------

------------------------------------------------------------
          Begin self-consistency iteration #   12

  Date     :  20190722, Time     :  144440.655
------------------------------------------------------------
  Evaluating new KS density.
  Integration grid: deviation in total charge (<rho> - N_e) =  -3.950404E-10
  Pulay mixing of updated and previous charge densities.

  Evaluating partitioned Hartree potential by multipole expansion.
  | Analytical far-field extrapolation by fixed multipoles:
  | Hartree multipole sum: apparent total charge =   0.999994E+00
  Summing up the Hartree potential.
  Time summed over all CPUs for potential: real work        0.096 s, elapsed        0.097 s
  | RMS charge density error from multipole expansion :   0.492780E-03

  Integrating Hamiltonian matrix: batch-based integration.
  Time summed over all CPUs for integration: real work        0.164 s, elapsed        0.164 s

  Updating Kohn-Sham eigenvalues, eigenvectors, occupation numbers, and Fermi level.
  Solving generalized eigenproblem
  Updating Kohn-Sham eigenvalues and eigenfunctions.
  Solving real generalised eigenvalue problem by standard LAPACK (fast)
  Determining occupation numbers for Kohn-Sham eigenstates.
  | Chemical potential (Fermi level) in eV                 : -.17463713E+02
  | Error in electron count due to remaining E_F inaccuracy: -.39297454E-09
  | Maximum occupation number of highest empty state:  0.00E+00

  Highest occupied state (VBM) at    -25.59981392 eV
  | Occupation number:      2.00000000

  Lowest unoccupied state (CBM) at   -17.45894416 eV
  | Occupation number:      0.50000350

  Overall HOMO-LUMO gap:      8.14086976 eV.

  Total energy components:
  | Sum of eigenvalues            :         -89.78790179 Ha       -2443.25311911 eV
  | XC energy correction          :         -16.45092757 Ha        -447.65251555 eV
  | XC potential correction       :          21.14195229 Ha         575.30179286 eV
  | Free-atom electrostatic energy:         -71.52330930 Ha       -1946.24827011 eV
  | Hartree energy correction     :           6.82711769 Ha         185.77532462 eV
  | Entropy correction            :          -0.00016515 Ha          -0.00449404 eV
  | ---------------------------
  | Total energy                  :        -149.79306868 Ha       -4076.07678730 eV
  | Total energy, T -> 0          :        -149.79323383 Ha       -4076.08128134 eV  <-- do not rely on this value for anything but (periodic) metals
[...]
  | Total energy (T->0) per atom                          :       -2038.04064067 eV  <-- do not rely on this value for anything but (periodic) metals
  | Electronic free energy per atom                       :       -2038.04288769 eV

  Self-consistency convergence accuracy:
  | Change of charge density      :  0.1183E-05
  | Change of sum of eigenvalues  : -0.1367E-04 eV
  | Change of total energy        : -0.9358E-10 eV

  Electronic self-consistency reached - switching on the force computation.

  End self-consistency iteration #    12       :  max(cpu_time)    wall_clock(cpu1)
  | Time for this iteration                    :        0.104 s           0.104 s
  | Charge density & force component update    :        0.030 s           0.029 s
  | Density mixing                             :        0.002 s           0.002 s
  | Hartree multipole update                   :        0.004 s           0.004 s
  | Hartree multipole summation                :        0.025 s           0.025 s
  | Integration                                :        0.042 s           0.041 s
  | Solution of K.-S. eqns.                    :        0.001 s           0.001 s
  | Total energy evaluation                    :        0.000 s           0.001 s
------------------------------------------------------------

------------------------------------------------------------
          Begin self-consistency iteration #   13

  Date     :  20190722, Time     :  144440.760
------------------------------------------------------------
  Evaluating new KS density.
  Integration grid: deviation in total charge (<rho> - N_e) =  -3.925908E-10
  Pulay mixing of updated and previous charge densities.

  Evaluating partitioned Hartree potential by multipole expansion.
  | Analytical far-field extrapolation by fixed multipoles:
  | Hartree multipole sum: apparent total charge =   0.999999E+00
  Summing up the Hartree potential.
  Time summed over all CPUs for potential: real work        0.252 s, elapsed        0.255 s
  | RMS charge density error from multipole expansion :   0.492780E-03

  Integrating Hamiltonian matrix: batch-based integration.
  Time summed over all CPUs for integration: real work        0.164 s, elapsed        0.165 s

  Updating Kohn-Sham eigenvalues, eigenvectors, occupation numbers, and Fermi level.
  Solving generalized eigenproblem
  Updating Kohn-Sham eigenvalues and eigenfunctions.
  Solving real generalised eigenvalue problem by standard LAPACK (fast)
  Determining occupation numbers for Kohn-Sham eigenstates.
  | Chemical potential (Fermi level) in eV                 : -.17463752E+02
  | Error in electron count due to remaining E_F inaccuracy: -.37909587E-09
  | Maximum occupation number of highest empty state:  0.00E+00

  Highest occupied state (VBM) at    -25.59985381 eV
  | Occupation number:      2.00000000

  Lowest unoccupied state (CBM) at   -17.45898274 eV
  | Occupation number:      0.50000004

  Overall HOMO-LUMO gap:      8.14087106 eV.

  Total energy components:
  | Sum of eigenvalues            :         -89.78792307 Ha       -2443.25369808 eV
  | XC energy correction          :         -16.45092713 Ha        -447.65250338 eV
  | XC potential correction       :          21.14195173 Ha         575.30177773 eV
  | Free-atom electrostatic energy:         -71.52330930 Ha       -1946.24827011 eV
  | Hartree energy correction     :           6.82713908 Ha         185.77590654 eV
  | Entropy correction            :          -0.00016515 Ha          -0.00449404 eV
  | ---------------------------
  | Total energy                  :        -149.79306868 Ha       -4076.07678730 eV
  | Total energy, T -> 0          :        -149.79323383 Ha       -4076.08128134 eV  <-- do not rely on this value for anything but (periodic) metals
  | Electronic free energy        :        -149.79339899 Ha       -4076.08577538 eV

  Derived energy quantities:
  | Kinetic energy                :         149.44534960 Ha        4066.61486977 eV
  | Electrostatic energy          :        -282.78749116 Ha       -7695.03915368 eV
  | Energy correction for multipole
  | error in Hartree potential    :          -0.00053637 Ha          -0.01459524 eV
  | Sum of eigenvalues per atom                           :       -1221.62684904 eV
  | Total energy (T->0) per atom                          :       -2038.04064067 eV  <-- do not rely on this value for anything but (periodic) metals
  | Electronic free energy per atom                       :       -2038.04288769 eV

  atomic forces [eV/Ang]:
  -----------------------
  atom #    1
   Hellmann-Feynman              : -0.642604E-10  0.590489E-10 -0.153647E+02
   Ionic forces                  :  0.000000E+00  0.000000E+00  0.000000E+00
   Multipole                     :  0.705331E-13 -0.768171E-13 -0.595171E-01
   Pulay + GGA                   :  0.000000E+00  0.000000E+00  0.000000E+00
   ----------------------------------------------------------------
   Total forces(   1)            : -0.641899E-10  0.589721E-10 -0.154242E+02
  atom #    2
   Hellmann-Feynman              : -0.604264E-10  0.200764E-10  0.153647E+02
   Ionic forces                  :  0.000000E+00  0.000000E+00  0.000000E+00
   Multipole                     : -0.586650E-13 -0.169133E-12  0.595171E-01
   Pulay + GGA                   :  0.000000E+00  0.000000E+00  0.000000E+00
   ----------------------------------------------------------------
   Total forces(   2)            : -0.604851E-10  0.199073E-10  0.154242E+02


  Self-consistency convergence accuracy:
  | Change of charge density      :  0.1526E-05
  | Change of sum of eigenvalues  : -0.5790E-03 eV
  | Change of total energy        :  0.1439E-09 eV
  | Change of forces              :  0.1542E+02 eV/A

  End self-consistency iteration #    13       :  max(cpu_time)    wall_clock(cpu1)
  | Time for this iteration                    :        0.144 s           0.144 s
  | Charge density & force component update    :        0.029 s           0.030 s
  | Density mixing                             :        0.003 s           0.002 s
  | Hartree multipole update                   :        0.004 s           0.004 s
  | Hartree multipole summation                :        0.065 s           0.064 s
  | Integration                                :        0.042 s           0.042 s
  | Solution of K.-S. eqns.                    :        0.001 s           0.001 s
  | Total energy evaluation                    :        0.001 s           0.001 s
------------------------------------------------------------

------------------------------------------------------------
          Begin self-consistency iteration #   14

  Date     :  20190722, Time     :  144440.907
------------------------------------------------------------
  Evaluating new KS density and force components.
  Integration grid: deviation in total charge (<rho> - N_e) =  -3.792842E-10
  Pulay mixing of updated and previous charge densities.

  Evaluating partitioned Hartree potential by multipole expansion.
  | Analytical far-field extrapolation by fixed multipoles:
  | Hartree multipole sum: apparent total charge =   0.999999E+00
  Summing up the Hartree potential.
  Time summed over all CPUs for potential: real work        0.251 s, elapsed        0.254 s
  | RMS charge density error from multipole expansion :   0.492780E-03

  Integrating Hamiltonian matrix: batch-based integration.
  Time summed over all CPUs for integration: real work        0.165 s, elapsed        0.165 s

  Updating Kohn-Sham eigenvalues, eigenvectors, occupation numbers, and Fermi level.
  Solving generalized eigenproblem
  Updating Kohn-Sham eigenvalues and eigenfunctions.
  Solving real generalised eigenvalue problem by standard LAPACK (fast)
  Determining occupation numbers for Kohn-Sham eigenstates.
  | Chemical potential (Fermi level) in eV                 : -.17463752E+02
  | Error in electron count due to remaining E_F inaccuracy: -.37909231E-09
  | Maximum occupation number of highest empty state:  0.00E+00

  Highest occupied state (VBM) at    -25.59985400 eV
  | Occupation number:      2.00000000

  Lowest unoccupied state (CBM) at   -17.45898293 eV
  | Occupation number:      0.50000008

  Overall HOMO-LUMO gap:      8.14087106 eV.

  Total energy components:
  | Sum of eigenvalues            :         -89.78792317 Ha       -2443.25370073 eV
  | XC energy correction          :         -16.45092712 Ha        -447.65250338 eV
  | XC potential correction       :          21.14195173 Ha         575.30177774 eV
  | Free-atom electrostatic energy:         -71.52330930 Ha       -1946.24827011 eV
  | Hartree energy correction     :           6.82713918 Ha         185.77590918 eV
  | Entropy correction            :          -0.00016515 Ha          -0.00449404 eV
  | ---------------------------
  | Total energy                  :        -149.79306868 Ha       -4076.07678730 eV
  | Total energy, T -> 0          :        -149.79323383 Ha       -4076.08128134 eV  <-- do not rely on this value for anything but (periodic) metals
  | Electronic free energy        :        -149.79339899 Ha       -4076.08577538 eV

  Derived energy quantities:
  | Kinetic energy                :         149.44534961 Ha        4066.61486987 eV
  | Electrostatic energy          :        -282.78749116 Ha       -7695.03915379 eV
  | Energy correction for multipole
  | error in Hartree potential    :          -0.00053637 Ha          -0.01459524 eV
  | Sum of eigenvalues per atom                           :       -1221.62685036 eV
  | Total energy (T->0) per atom                          :       -2038.04064067 eV  <-- do not rely on this value for anything but (periodic) metals
  | Electronic free energy per atom                       :       -2038.04288769 eV

  atomic forces [eV/Ang]:
  -----------------------
  atom #    1
   Hellmann-Feynman              : -0.532790E-10  0.386390E-10 -0.153647E+02
   Ionic forces                  :  0.000000E+00  0.000000E+00  0.000000E+00
   Multipole                     :  0.187706E-12 -0.226752E-12 -0.595171E-01
   Pulay + GGA                   :  0.128795E-10 -0.132099E-10  0.156935E+02
   ----------------------------------------------------------------
   Total forces(   1)            : -0.402118E-10  0.252024E-10  0.269276E+00
  atom #    2
   Hellmann-Feynman              : -0.294552E-10 -0.448041E-11  0.153647E+02
   Ionic forces                  :  0.000000E+00  0.000000E+00  0.000000E+00
   Multipole                     : -0.458392E-13 -0.260032E-12  0.595171E-01
   Pulay + GGA                   :  0.875189E-11 -0.754301E-11 -0.156935E+02
   ----------------------------------------------------------------
   Total forces(   2)            : -0.207492E-10 -0.122835E-10 -0.269276E+00


  Self-consistency convergence accuracy:
  | Change of charge density      :  0.2690E-07
  | Change of sum of eigenvalues  : -0.2651E-05 eV
  | Change of total energy        : -0.1547E-11 eV
  | Change of forces              :  0.2967E-05 eV/A

  Writing Kohn-Sham eigenvalues.

  State    Occupation    Eigenvalue [Ha]    Eigenvalue [eV]
      1       2.00000         -19.412708         -528.24667
      2       2.00000         -19.412496         -528.24090
      3       2.00000          -1.741319          -47.38371
      4       2.00000          -1.152615          -31.36426
      5       2.00000          -0.956621          -26.03098
      6       2.00000          -0.956621          -26.03098
      7       2.00000          -0.940777          -25.59985
      8       0.50000          -0.641606          -17.45898
      9       0.50000          -0.641606          -17.45898
     10       0.00000          -0.184003           -5.00697
     11       0.00000          -0.160781           -4.37507
     12       0.00000          -0.115128           -3.13279
     13       0.00000          -0.115128           -3.13279
     14       0.00000          -0.063116           -1.71748

  Highest occupied state (VBM) at    -25.59985400 eV
  | Occupation number:      2.00000000

  Lowest unoccupied state (CBM) at   -17.45898293 eV
  | Occupation number:      0.50000008

  Overall HOMO-LUMO gap:      8.14087106 eV.

  Self-consistency cycle converged.

  End self-consistency iteration #    14       :  max(cpu_time)    wall_clock(cpu1)
  | Time for this iteration                    :        0.213 s           0.214 s
  | Charge density & force component update    :        0.098 s           0.098 s
  | Density mixing                             :        0.003 s           0.003 s
  | Hartree multipole update                   :        0.004 s           0.004 s
  | Hartree multipole summation                :        0.064 s           0.064 s
  | Integration                                :        0.042 s           0.041 s
  | Solution of K.-S. eqns.                    :        0.001 s           0.001 s
  | Total energy evaluation                    :        0.001 s           0.001 s
------------------------------------------------------------
  Writing cluster restart information to file restart
  ------------------------------------------------------------
   Computing monopole / dipole moments for complete molecule:
  | Total electronic charge [e]         :          0.150000000823448E+02
  | Total ionic charge [e]              :          0.160000000000000E+02
  | Total charge [e]                    :          0.999999917655199E+00
 * Warning: The system has a total charge of      0.99999992 .
 * The dipole moment depends on the choice of the origin.
  | Total dipole moment [eAng]          :          0.311524379184580E-13        -0.328892487547888E-13         0.604999950181408E+00
  | Absolute dipole moment              :          0.604999950181408E+00 eAng              /                   0.290548571835368E+01 Debye  .
  Removing unitary transformations (pure translations, rotations) from forces on atoms.
  Atomic forces before filtering:
  | Net force on center of mass :  -0.609610E-10  0.129189E-10  0.190591E-10 eV/A
  | Net torque on center of mass:   0.210911E-10  0.109505E-10  0.000000E+00 eV
  Atomic forces after filtering:
  | Net force on center of mass :  -0.103846E-25  0.519230E-26  0.000000E+00 eV/A
  | Net torque on center of mass:   0.146070E-26  0.000000E+00  0.000000E+00 eV

  Energy and forces in a compact form:
  | Total energy uncorrected      :         -0.407607678729666E+04 eV
  | Total energy corrected        :         -0.407608128133595E+04 eV  <-- do not rely on this value for anything but (periodic) metals
  | Electronic free energy        :         -0.407608577537524E+04 eV
  Total atomic forces (unitary forces cleaned) [eV/Ang]:
  |   1         -0.519230158900898E-26          0.389422619175673E-26          0.269276411535537E+00
  |   2         -0.519230158900898E-26          0.129807539725224E-26         -0.269276411535537E+00

  ------------------------------------ 
  Start decomposition of the XC Energy 
  ------------------------------------ 
  Hartree-Fock part   :          0.000000000 Ha              0.000000000 eV
  ------------------------------------ 
  X Energy            :        -15.947663136 Ha           -433.957993483 eV
  C Energy GGA        :         -0.503263988 Ha            -13.694509894 eV
  Total XC Energy     :        -16.450927125 Ha           -447.652503377 eV
  LDA X and C from self-consistent density 
  X Energy LDA        :        -14.463100135 Ha           -393.560978836 eV
  C Energy LDA        :         -1.061536304 Ha            -28.885872526 eV
  ------------------------------------ 
  End decomposition of the XC Energy 
  ------------------------------------ 

------------------------------------------------------------------------------
  Final output of selected total energy values:

  The following output summarizes some interesting total energy values
  at the end of a run (AFTER all relaxation, molecular dynamics, etc.).

  | Total energy of the DFT / Hartree-Fock s.c.f. calculation      :          -4076.076787297 eV
  | Final zero-broadening corrected energy (caution - metals only) :          -4076.081281336 eV
  | For reference only, the value of 1 Hartree used in FHI-aims is :             27.211384500 eV

  Before relying on these values, please be sure to understand exactly which
  total energy value is referred to by a given number. Different objects may
  all carry the same name 'total energy'. Definitions:

  Total energy of the DFT / Hartree-Fock s.c.f. calculation:
  | Note that this energy does not include ANY quantities calculated after the
  | s.c.f. cycle, in particular not ANY RPA, MP2, etc. many-body perturbation terms.

  Final zero-broadening corrected energy:
  | For metallic systems only, a broadening of the occupation numbers at the Fermi
  | level can be extrapolated back to zero broadening by an electron-gas inspired
  | formula. For all systems that are not real metals, this value can be
  | meaningless and should be avoided.

------------------------------------------------------------------------------
  Methods described in the following list of references were used in this FHI-aims run.
  If you publish the results, please make sure to cite these reference if they apply.
  FHI-aims is an academic code, and for our developers (often, Ph.D. students
  and postdocs), scientific credit in the community is essential.
  Thank you for helping us!

  For any use of FHI-aims, please cite:

    Volker Blum, Ralf Gehrke, Felix Hanke, Paula Havu, Ville Havu,
    Xinguo Ren, Karsten Reuter, and Matthias Scheffler
    'Ab initio molecular simulations with numeric atom-centered orbitals'
    Computer Physics Communications 180, 2175-2196 (2009)
    http://dx.doi.org/10.1016/j.cpc.2009.06.022


  For the real-space grid partitioning and parallelization used in this calculation, please cite:

    Ville Havu, Volker Blum, Paula Havu, and Matthias Scheffler,
    'Efficient O(N) integration for all-electron electronic structure calculation'
    'using numerically tabulated basis functions'
    Journal of Computational Physics 228, 8367-8379 (2009).
    http://dx.doi.org/10.1016/j.jcp.2009.08.008

  Of course, there are many other important community references, e.g., those cited in the
  above references. Our list is limited to references that describe implementations in the
  FHI-aims code. The reason is purely practical (length of this list) - please credit others as well.

------------------------------------------------------------
          Leaving FHI-aims.
          Date     :  20190722, Time     :  144441.159

          Computational steps:
          | Number of self-consistency cycles          :           14

          Detailed time accounting                     :  max(cpu_time)    wall_clock(cpu1)
          | Total time                                 :        2.049 s           2.064 s
          | Preparation time                           :        0.140 s           0.149 s
          | Grid partitioning                          :        0.021 s           0.022 s
          | Preloading free-atom quantities on grid    :        0.016 s           0.016 s
          | Free-atom superposition energy             :        0.009 s           0.009 s
          | Total time for integrations                :        0.689 s           0.685 s
          | Total time for solution of K.-S. equations :        0.026 s           0.027 s
          | Total time for density & force components  :        0.515 s           0.507 s
          | Total time for mixing                      :        0.035 s           0.034 s
          | Total time for Hartree multipole update    :        0.061 s           0.053 s
          | Total time for Hartree multipole sum       :        0.456 s           0.453 s
          | Total time for total energy evaluation     :        0.005 s           0.012 s

          Have a nice day.
------------------------------------------------------------
