  MPI-parallelism will be employed.
------------------------------------------------------------
          Invoking FHI-aims ...
          Version 160328_3
          Compiled on 2019/06/10 at 14:55:49 on host taito-login3.csc.fi.

          When using FHI-aims, please cite the following reference:

          Volker Blum, Ralf Gehrke, Felix Hanke, Paula Havu,
          Ville Havu, Xinguo Ren, Karsten Reuter, and Matthias Scheffler,
          'Ab Initio Molecular Simulations with Numeric Atom-Centered Orbitals',
          Computer Physics Communications 180, 2175-2196 (2009)

          For any questions about FHI-aims, please visit the aimsclub website
          with its forums and wiki. Contributions to both the forums and the
          wiki are warmly encouraged - they are for you, and everyone is welcome there.

------------------------------------------------------------

  Date     :  20190722, Time     :  144534.588
  Time zero on CPU 1             :   0.609900000000000E-01  s.
  Internal wall clock time zero  :           333038734.588  s.

  Using        4 parallel tasks.
  Task        0 on host c798 reporting.
  Task        1 on host c798 reporting.
  Task        2 on host c798 reporting.
  Task        3 on host c798 reporting.

  Performing system and environment tests:
  | Environment variable OMP_NUM_THREADS correctly set to 1.
  | Maximum stacksize for task 0: unlimited
  | Maximum stacksize for task 1: unlimited
  | Maximum stacksize for task 2: unlimited
  | Maximum stacksize for task 3: unlimited
  | Current stacksize for task 0: 1024 [Mb]
  | Current stacksize for task 1: 1024 [Mb]
  | Current stacksize for task 2: 1024 [Mb]
  | Current stacksize for task 3: 1024 [Mb]
  | Checking for scalapack...
  | No scalapack compiled in.

  Obtaining array dimensions for all initial allocations:
  
  -----------------------------------------------------------------------
  Parsing control.in (first pass over file, find array dimensions only).
  The contents of control.in will be repeated verbatim below
  unless switched off by setting 'verbatim_writeout .false.' .
  in the first line of control.in .
  -----------------------------------------------------------------------
  
    #  Physical model settings
    #
  
    xc                            pbe
    charge                        1.0
    relativistic                  none
  #  default_initial_moment        0.0
    spin                          none
  #  vdw_correction_hirshfeld
  
    #  SCF convergence settings
    #
  
    sc_accuracy_rho               1E-4
    sc_accuracy_eev               1E-2
    sc_accuracy_etot              1E-8
    sc_iter_limit                 100
  
    #  Occupation settings
    #
  
    restart                       restart
  #  force_occupation_projector      5 1 1.0 5 5 # ion 4
  
    #  Relaxation
    #
  
    ###########relax_geometry                bfgs    1.e-4
  
  
  ################################################################################
  #
  #  FHI-aims code project
  #  VB, Fritz-Haber Institut, 2007
  #
  #  Suggested "safe" defaults for O atom (to be pasted into control.in file)
  #
  ################################################################################
    species        O
  #     global species definitions
      nucleus             8
      mass                15.9994
  #
      l_hartree           8
  #
      cut_pot             4.0  2.0  1.0
      basis_dep_cutoff    0.d0
  #
      radial_base         36 7.0
      radial_multiplier   2
       angular_grids specified
        division   0.4087  110
        division   0.5181  194
        division   0.6184  302
        division   0.7315  434
        division   0.7934  590
  #      division   0.9656  770
  #      division   1.4041  974
  #      outer_grid 974
        outer_grid 590
  ################################################################################
  #
  #  Definition of "minimal" basis
  #
  ################################################################################
  #     valence basis states
      valence      2  s   2.
      valence      2  p   4.
  #     ion occupancy
      ion_occ      2  s   1.
      ion_occ      2  p   3.
  ################################################################################
  #
  #  Suggested additional basis functions. For production calculations,
  #  uncomment them one after another (the most important basis functions are
  #  listed first).
  #
  #  Constructed for dimers: 1.0 A, 1.208 A, 1.5 A, 2.0 A, 3.0 A
  #
  ################################################################################
  #  "First tier" - improvements: -699.05 meV to -159.38 meV
       hydro 2 p 1.8
       hydro 3 d 7.6
       hydro 3 s 6.4
  #  "Second tier" - improvements: -49.91 meV to -5.39 meV
       hydro 4 f 11.6
       hydro 3 p 6.2
       hydro 3 d 5.6
       hydro 5 g 17.6
       hydro 1 s 0.75
  #  "Third tier" - improvements: -2.83 meV to -0.50 meV
  #     ionic 2 p auto
  #     hydro 4 f 10.8
  #     hydro 4 d 4.7
  #     hydro 2 s 6.8
  #  "Fourth tier" - improvements: -0.40 meV to -0.12 meV
  #     hydro 3 p 5
  #     hydro 3 s 3.3
  #     hydro 5 g 15.6
  #     hydro 4 f 17.6
  #     hydro 4 d 14
  # Further basis functions - -0.08 meV and below
  #     hydro 3 s 2.1
  #     hydro 4 d 11.6
  #     hydro 3 p 16
  #     hydro 2 s 17.2
  compute_forces .true.
  final_forces_cleaned .true.
  output dipole
  
  -----------------------------------------------------------------------
  Completed first pass over input file control.in .
  -----------------------------------------------------------------------
  
  
  -----------------------------------------------------------------------
  Parsing geometry.in (first pass over file, find array dimensions only).
  The contents of geometry.in will be repeated verbatim below
  unless switched off by setting 'verbatim_writeout .false.' .
  in the first line of geometry.in .
  -----------------------------------------------------------------------
  
  #
  # temporary structure-file for finite-difference calculation of forces
  # displacement  -0.0025 of \# atom     1 direction     2
  #
  atom   -0.00000000   -0.00000000    0.04235921   O
  atom    0.00000000    0.00000000    1.16264079   O
  
  -----------------------------------------------------------------------
  Completed first pass over input file geometry.in .
  -----------------------------------------------------------------------
  

  Basic array size parameters:
  | Number of species                 :        1
  | Number of atoms                   :        2
  | Max. basis fn. angular momentum   :        4
  | Max. atomic/ionic basis occupied n:        2
  | Max. number of basis fn. types    :        2
  | Max. radial fns per species/type  :        8
  | Max. logarithmic grid size        :     1301
  | Max. radial integration grid size :       73
  | Max. angular integration grid size:      590
  | Max. angular grid division number :        8
  | Radial grid for Hartree potential :     1301
  | Number of spin channels           :        1

------------------------------------------------------------
          Reading file control.in.
------------------------------------------------------------
  XC: Using PBE gradient-corrected functionals.
  Charged system requested: Charge =   0.100000E+01.
  Non-relativistic treatment of kinetic energy.
  Spin treatment: No spin polarisation.
  Convergence accuracy of self-consistent charge density:  0.1000E-03
  Convergence accuracy of sum of eigenvalues:  0.1000E-01
  Convergence accuracy of total energy:  0.1000E-07
  Maximum number of s.-c. iterations  :   100
  Restart file specified as : restart
  | Reading information from existing file.
 
  Reading configuration options for species O                   .
  | Found nuclear charge :   8.0000
  | Found atomic mass :    15.9994000000000      amu
  | Found l_max for Hartree potential  :   8
  | Found cutoff potl. onset [A], width [A], scale factor :    4.00000    2.00000    1.00000
  | Threshold for basis-dependent cutoff potential is   0.000000E+00
  | Found data for basic radial integration grid :    36 points, outermost radius =    7.000 A
  | Found multiplier for basic radial grid :   2
  | Found angular grid specification: user-specified.
  | Specified grid contains     6 separate shells.
  | Check grid settings after all constraints further below.
  | Found free-atom valence shell :  2 s   2.000
  | Found free-atom valence shell :  2 p   4.000
  | No ionic wave fns used. Skipping ion_occ.
  | No ionic wave fns used. Skipping ion_occ.
  | Found hydrogenic basis function :  2 p   1.800
  | Found hydrogenic basis function :  3 d   7.600
  | Found hydrogenic basis function :  3 s   6.400
  | Found hydrogenic basis function :  4 f  11.600
  | Found hydrogenic basis function :  3 p   6.200
  | Found hydrogenic basis function :  3 d   5.600
  | Found hydrogenic basis function :  5 g  17.600
  | Found hydrogenic basis function :  1 s   0.750
  Species O                   : Missing cutoff potential type.
  Defaulting to exp(1/x)/(1-x)^2 type cutoff potential.
  Species O : No 'logarithmic' tag. Using default grid for free atom:
  | Default logarithmic grid data [bohr] : 0.1000E-03 0.1000E+03 0.1012E+01
  Species O : On-site basis accuracy parameter (for Gram-Schmidt orthonormalisation) not specified.
  Using default value basis_acc =  0.1000000E-03.
  Species O                   : Using default innermost maximum threshold i_radial=  2 for radial functions.
  Species O                   : Default cutoff onset for free atom density etc. : 0.40000000E+01 AA.
  Species O                   : Basic radial grid will be enhanced according to radial_multiplier =   2, to contain    73 grid points.
  Forces will be computed.
  Cleaning forces before final output.
  Dipole moment will be written out.
 
  Finished reading input file 'control.in'. Consistency checks are next.
 
  Target number of points in a grid batch is not set. Defaulting to  100
  Method for grid partitioning is not set. Defaulting to parallel hash+maxmin partitioning.
  Batch size limit is not set. Defaulting to    200
  By default, will store active basis functions for each batch.
  If in need of memory, prune_basis_once .false. can be used to disable this option.
  communication_type for Hartree potential was not specified.
  Defaulting to calc_hartree .
  Defaulting to Pulay charge density mixer.
  Pulay mixer: Number of relevant iterations not set.
  Defaulting to    8 iterations.
  Pulay mixer: Number of initial linear mixing iterations not set.
  Defaulting to    0 iterations.
  Work space size for distributed Hartree potential not set.
  Defaulting to   0.200000E+03 MB.
  Mixing parameter for charge density mixing has not been set.
  Using default: charge_mix_param =     0.2000.
  Algorithm-dependent basis array size parameters:
  | n_max_pulay                         :        8
  Geometry relaxation not requested: no relaxation will be performed.
  Force calculation: scf convergence accuracy of forces not set.
  Defaulting to  0.1000E-03 eV/A.
  Handling of forces: Unphysical translation and rotation will be removed from forces.
  No accuracy limit for integral partition fn. given. Defaulting to  0.1000E-14.
  No threshold value for u(r) in integrations given. Defaulting to  0.1000E-05.
  No occupation type (smearing scheme) given. Defaulting to Gaussian broadening, width =  0.1000E-01 eV.
  No accuracy for occupation numbers given. Defaulting to  0.1000E-07.
  No threshold value for occupation numbers given. Defaulting to  0.0000E+00.
  No accuracy for fermi level given. Defaulting to  0.1000E-19.
  Maximum # of iterations to find E_F not set. Defaulting to  200.
  Preferred method for the eigenvalue solver ('KS_method') not specified in 'control.in'.
  Calling blacs routine to test compilation state
  The best choice would be 'elpa', but your version of FHI-aims is compiled without scalapack support.
  Defaulting to 'lapack_fast' instead (serial solution, time will not improve with more CPUs).
  Will not use alltoall communication since running on < 1024 CPUs.
  Threshold for basis singularities not set.
  Default threshold for basis singularities:  0.1000E-04
  partition_type (choice of integration weights) for integrals was not specified.
  | Using a version of the partition function of Stratmann and coworkers ('stratmann_smoother').
  | At each grid point, the set of atoms used to build the partition table is smoothly restricted to
  | only those atoms whose free-atom density would be non-zero at that grid point.
  Partitioning for Hartree potential was not defined. Using partition_type for integrals.
  | Adjusted default value of keyword multip_moments_threshold to:       0.10000000E-11
  | This value may affect high angular momentum components of the Hartree potential in periodic systems.
  No q(lm)/r^(l+1) cutoff set for long-range Hartree potential.
  | Using default value of  0.100000E-09 .
  | Verify using the multipole_threshold keyword.
  Defaulting to new monopole extrapolation.
  Density update method: automatic selection selected.
------------------------------------------------------------


------------------------------------------------------------
          Reading geometry description geometry.in.
------------------------------------------------------------
 * Warning: Initial charge and total charge of the system are inconsistent.
 * Selected charge in control.in:     1.0000* Sum of initial charges in geometry.in:     0.0000
  Input structure read successfully.
  The structure contains        2 atoms,  and a total of         15.000 electrons.

  Input geometry:
  | No unit cell requested.
  | Atomic structure:
  |       Atom                x [A]            y [A]            z [A]
  |    1: Species O              0.000000         0.000000         0.042359
  |    2: Species O              0.000000         0.000000         1.162641
  |

  | The smallest distance between any two atoms is         1.12028158 AA.
  |
  | The first atom of this pair is atom number                      1 .
  | The second atom of this pair is atom number                     2 .

  Number of empty states per atom not set in control.in - providing a guess from actual geometry.
  | Total number of empty states used during s.c.f. cycle:        6
  If you use a very high smearing, use empty_states (per atom!) in control.in to increase this value.

  Structure-dependent array size parameters: 
  | Maximum number of distinct radial functions  :       11
  | Maximum number of basis functions            :       78
  | Number of Kohn-Sham states (occupied + empty):       14
------------------------------------------------------------

------------------------------------------------------------
          Preparing all fixed parts of the calculation.
------------------------------------------------------------
  Determining machine precision:
    2.225073858507201E-308
  Setting up grids for atomic and cluster calculations.

  Creating wave function, potential, and density for free atoms.

  Species: O

  List of occupied orbitals and eigenvalues:
    n    l              occ      energy [Ha]    energy [eV]
    1    0           2.0000       -18.898576      -514.2564
    2    0           2.0000        -0.878795       -23.9132
    2    1           4.0000        -0.332075        -9.0362

  Creating fixed part of basis set: Ionic, confined, hydrogenic.
 
  O                    hydrogenic:
 
  List of hydrogenic basis orbitals: 
    n    l      effective z      eigenvalue [eV]  inner max. [A]     outer max. [A]     outer radius [A]   
    2    1         1.800000       -11.0118           1.178562           1.178562           5.432602
    3    2         7.600000       -87.3183           0.624125           0.624125           4.634338
    3    0         6.400000       -61.9210           0.061167           1.081902           5.110480
    4    3        11.600000      -114.4239           0.731631           0.731631           4.522403
    3    1         6.200000       -58.1114           0.255680           1.030270           5.110480
    3    2         5.600000       -47.4083           0.847233           0.847233           5.173339
    5    4        17.600000      -168.5800           0.749740           0.749740           4.051222
    1    0         0.750000        -7.6499           0.705284           0.705284           5.366593
 

  Adding cutoff potential to free-atom effective potential.
  Creating atomic-like basis functions for current effective potential.

  Species O                   :

  List of atomic basis orbitals and eigenvalues:
    n    l      energy [Ha]    energy [eV]    outer radius [A]
    1    0       -18.898576      -514.2564       1.415765
    2    0        -0.878795       -23.9132       5.048385
    2    1        -0.332075        -9.0362       5.301386

  Assembling full basis from fixed parts.
  | Species O :   atomic orbital   1 s accepted.
  | Species O :   atomic orbital   2 s accepted.
  | Species O :    hydro orbital   3 s accepted.
  | Species O :    hydro orbital   1 s accepted.
  | Species O :   atomic orbital   2 p accepted.
  | Species O :    hydro orbital   2 p accepted.
  | Species O :    hydro orbital   3 p accepted.
  | Species O :    hydro orbital   3 d accepted.
  | Species O :    hydro orbital   3 d accepted.
  | Species O :    hydro orbital   4 f accepted.
  | Species O :    hydro orbital   5 g accepted.
 
  Basis size parameters after reduction:
  | Total number of radial functions:       11
  | Total number of basis functions :       78
 
  Testing on-site integration grid accuracy.
  |  Species  Function  <phi|h_atom|phi> (log., in eV)  <phi|h_atom|phi> (rad., in eV)
           1        1               -514.2564144315               -514.2564099626
           1        2                -23.9132357102                -23.9132356433
           1        3                 17.5398579759                 17.5398338425
           1        4                 14.5207278950                 14.5207740449
           1        5                 -9.0362392718                 -9.0362394845
           1        6                  7.9056275927                  7.9056237490
           1        7                 33.4201658992                 33.4201612015
           1        8                 45.8231952720                 45.8231953152
           1        9                 52.1937595491                 52.1937593440
           1       10                 85.4062894308                 85.4062894578
           1       11                142.0975701139                142.0975701391

  Preparing densities etc. for the partition functions (integrals / Hartree potential).

  Preparations completed.
  max(cpu_time)          :      0.156 s.
  Wall clock time (cpu1) :      0.159 s.
------------------------------------------------------------

------------------------------------------------------------
          Begin self-consistency loop: Initialization.

          Date     :  20190722, Time     :  144534.762
------------------------------------------------------------

  Initializing index lists of integration centers etc. from given atomic structure:
  | Number of centers in hartree potential         :         2
  | Number of centers in hartree multipole         :         2
  | Number of centers in electron density summation:         2
  | Number of centers in basis integrals           :         2
  | Number of centers in integrals                 :         2
  | Number of centers in hamiltonian               :         2
  Partitioning the integration grid into batches with parallel hashing+maxmin method.
  | Number of batches:      745
  | Maximal batch size:     112
  | Minimal batch size:      49
  | Average batch size:      71.490
  | Standard deviation of batch sizes:      21.610

  Integration load balanced across     4 MPI tasks.
  Work distribution over tasks is as follows:
  Task     0 has      13319 integration points.
  Task     1 has      13308 integration points.
  Task     2 has      13279 integration points.
  Task     3 has      13354 integration points.
  Initializing partition tables, free-atom densities, potentials, etc. across the integration grid (initialize_grid_storage).
  | initialize_grid_storage: Actual outermost partition radius vs. multipole_radius_free
  | (-- VB: in principle, multipole_radius_free should be larger, hence this output)
  | Species        1: Confinement radius =              6.000000000000000 AA, multipole_radius_free =              6.064445521808699 AA.
  | Species        1: outer_partition_radius set to              6.064445521808699 AA .
  | Original list of interatomic distances with           2 x          2 entries is created.
  | Net number of integration points:    53260
  | of which are non-zero points    :    49986
  Obtaining max. number of non-zero basis functions in each batch (get_n_compute_maxes).
  | Maximal number of non-zero basis functions:       78 in task     0
  | Maximal number of non-zero basis functions:       78 in task     1
  | Maximal number of non-zero basis functions:       78 in task     2
  | Maximal number of non-zero basis functions:       78 in task     3
  Selecting the method for density update.
  Loop over occupied states selected for charge density update.
  Integrating Hamiltonian matrix: batch-based integration.
  Time summed over all CPUs for integration: real work        0.168 s, elapsed        0.170 s
  Integrating overlap matrix.
  Time summed over all CPUs for integration: real work        0.061 s, elapsed        0.062 s

  Reading cluster restart information from file restart
  Writing Kohn-Sham eigenvalues.

  State    Occupation    Eigenvalue [Ha]    Eigenvalue [eV]
      1       2.00000         -18.889630         -514.01299
      2       2.00000         -18.889404         -514.00683
      3       2.00000          -1.269640          -34.54866
      4       2.00000          -0.700708          -19.06722
      5       2.00000          -0.503622          -13.70425
      6       2.00000          -0.503622          -13.70425
      7       2.00000          -0.495082          -13.47188
      8       1.00000          -0.185915           -5.05901
      9       1.00000          -0.185915           -5.05901
     10       0.00000           0.098728            2.68652
     11       0.00000           0.105717            2.87671
     12       0.00000           0.132979            3.61854
     13       0.00000           0.000000            0.00000
     14       0.00000           0.000000            0.00000

  Highest occupied state (VBM) at     -5.05901117 eV
  | Occupation number:      1.00000012

  Lowest unoccupied state (CBM) at    -5.05901117 eV
  | Occupation number:      0.99999988

  Overall HOMO-LUMO gap:      0.00000000 eV.
*** get_ev_sum_p0 expected pure occ_numbers
*** sum(occ_numbers) =  1.6000000000000000E+01 instead of  1.5000000000000000E+01
  Calculating total energy contributions from superposition of free atom densities.
*** get_entropy_correction expected pure occ_numbers
*** sum(occ_numbers) =  1.6000000000000000E+01 instead of  1.5000000000000000E+01
*** get_penalty_energy expected pure occ_numbers
*** sum(occ_numbers) =  1.6000000000000000E+01 instead of  1.5000000000000000E+01

  Total energy components:
  | Sum of eigenvalues            :         -82.87524527 Ha       -2255.15016444 eV
  | XC energy correction          :         -16.82262305 Ha        -457.76686412 eV
  | XC potential correction       :          21.62973592 Ha         588.57506072 eV
  | Free-atom electrostatic energy:         -71.49642835 Ha       -1945.51680219 eV
  | Hartree energy correction     :           0.00000000 Ha           0.00000000 eV
  | Entropy correction            :          -0.00020734 Ha          -0.00564190 eV
  | ---------------------------
  | Total energy                  :        -149.56456075 Ha       -4069.85877003 eV
  | Total energy, T -> 0          :        -149.56476808 Ha       -4069.86441192 eV  <-- do not rely on this value for anything but (periodic) metals
  | Electronic free energy        :        -149.56497542 Ha       -4069.87005382 eV

  Derived energy quantities:
  | Kinetic energy                :         150.57532232 Ha        4097.36299179 eV
  | Electrostatic energy          :        -283.31726001 Ha       -7709.45489770 eV
  | Energy correction for multipole
  | error in Hartree potential    :           0.00000000 Ha           0.00000000 eV
  | Sum of eigenvalues per atom                           :       -1127.57508222 eV
  | Total energy (T->0) per atom                          :       -2034.93220596 eV  <-- do not rely on this value for anything but (periodic) metals
  | Electronic free energy per atom                       :       -2034.93502691 eV
  Initialize hartree_potential_storage
  Max. number of atoms included in rho_multipole:            2

  End scf initialization - timings             :  max(cpu_time)    wall_clock(cpu1)
  | Time for scf. initialization               :        0.124 s           0.124 s
  | Boundary condition initialization          :        0.001 s           0.001 s
  | Integration                                :        0.059 s           0.059 s
  | Solution of K.-S. eqns.                    :        0.002 s           0.001 s
  | Grid partitioning                          :        0.022 s           0.023 s
  | Preloading free-atom quantities on grid    :        0.018 s           0.018 s
  | Free-atom superposition energy             :        0.009 s           0.008 s
  | Total energy evaluation                    :        0.001 s           0.002 s
------------------------------------------------------------

------------------------------------------------------------
          Initial SCF-cycle to compute last known
          density from restart information.

  Date     :  20190722, Time     :  144534.887
------------------------------------------------------------
*** scf_solver:charge expected kweighted occ_numbers
*** sum(occ_numbers) =  1.6000000000000000E+01 instead of  1.5000000000000000E+01
  Evaluating new KS density.
*** update_density_and_forces_p2 expected kweighted occ_numbers
*** sum(occ_numbers) =  1.6000000000000000E+01 instead of  1.5000000000000000E+01
  Integration grid: deviation in total charge (<rho> - N_e) =   1.000000E+00

  Evaluating partitioned Hartree potential by multipole expansion.
  | Analytical far-field extrapolation by fixed multipoles:
  | Hartree multipole sum: apparent total charge =  -0.251655E-06
  Summing up the Hartree potential.
  Time summed over all CPUs for potential: real work        0.097 s, elapsed        0.098 s
  | RMS charge density error from multipole expansion :   0.651464E-03

  Integrating Hamiltonian matrix: batch-based integration.
  Time summed over all CPUs for integration: real work        0.167 s, elapsed        0.168 s

  Updating Kohn-Sham eigenvalues, eigenvectors, occupation numbers, and Fermi level.
  Solving generalized eigenproblem
  Updating Kohn-Sham eigenvalues and eigenfunctions.
  Transforming overlap matrix and checking for singularities.
  Overlap matrix is nonsingular:
  | Lowest eigenvalue:  0.183632E-03
  Solving real generalised eigenvalue problem by standard LAPACK (fast)
  Determining occupation numbers for Kohn-Sham eigenstates.
  | Chemical potential (Fermi level) in eV                 : -.50637821E+01
  | Error in electron count due to remaining E_F inaccuracy: 0.47426951E-10
  | Maximum occupation number of highest empty state:  0.00E+00

  Highest occupied state (VBM) at    -13.47187925 eV
  | Occupation number:      2.00000000

  Lowest unoccupied state (CBM) at    -5.05901283 eV
  | Occupation number:      0.50000594

  Overall HOMO-LUMO gap:      8.41286642 eV.

  Total energy components:
  | Sum of eigenvalues            :         -82.68933113 Ha       -2250.09118344 eV
  | XC energy correction          :         -16.91865781 Ha        -460.38010293 eV
  | XC potential correction       :          21.75459609 Ha         591.97267880 eV
  | Free-atom electrostatic energy:         -71.49642835 Ha       -1945.51680219 eV
  | Hartree energy correction     :          -0.66450598 Ha         -18.08212785 eV
  | Entropy correction            :          -0.00016515 Ha          -0.00449404 eV
  | ---------------------------
  | Total energy                  :        -150.01432719 Ha       -4082.09753761 eV
  | Total energy, T -> 0          :        -150.01449234 Ha       -4082.10203165 eV  <-- do not rely on this value for anything but (periodic) metals
  | Electronic free energy        :        -150.01465749 Ha       -4082.10652569 eV

  Derived energy quantities:
  | Kinetic energy                :         150.40589270 Ha        4092.75257746 eV
  | Electrostatic energy          :        -283.50156208 Ha       -7714.47001214 eV
  | Energy correction for multipole
  | error in Hartree potential    :          -0.00059889 Ha          -0.01629649 eV
  | Sum of eigenvalues per atom                           :       -1125.04559172 eV
  | Total energy (T->0) per atom                          :       -2041.05101583 eV  <-- do not rely on this value for anything but (periodic) metals
  | Electronic free energy per atom                       :       -2041.05326284 eV

  Self-consistency convergence accuracy:
  | Change of charge density      :  0.1359E+00
  | Change of sum of eigenvalues  :  0.5059E+01 eV
  | Change of total energy        : -0.1224E+02 eV

  End self-consistency iteration #     0       :  max(cpu_time)    wall_clock(cpu1)
  | Time for this iteration                    :        0.116 s           0.115 s
  | Charge density update                      :        0.033 s           0.032 s
  | Density mixing                             :        0.000 s           0.000 s
  | Hartree multipole update                   :        0.004 s           0.004 s
  | Hartree multipole summation                :        0.026 s           0.026 s
  | Integration                                :        0.043 s           0.042 s
  | Solution of K.-S. eqns.                    :        0.007 s           0.009 s
  | Total energy evaluation                    :        0.001 s           0.002 s
------------------------------------------------------------

------------------------------------------------------------
          Begin self-consistency iteration #    1

  Date     :  20190722, Time     :  144535.004
------------------------------------------------------------
  Evaluating new KS density.
  Integration grid: deviation in total charge (<rho> - N_e) =   4.746425E-11
  Pulay mixing of updated and previous charge densities.

  Evaluating partitioned Hartree potential by multipole expansion.
  | Analytical far-field extrapolation by fixed multipoles:
  | Hartree multipole sum: apparent total charge =   0.200000E+00
  Summing up the Hartree potential.
  Time summed over all CPUs for potential: real work        0.097 s, elapsed        0.098 s
  | RMS charge density error from multipole expansion :   0.572942E-03

  Integrating Hamiltonian matrix: batch-based integration.
  Time summed over all CPUs for integration: real work        0.165 s, elapsed        0.166 s

  Updating Kohn-Sham eigenvalues, eigenvectors, occupation numbers, and Fermi level.
  Solving generalized eigenproblem
  Updating Kohn-Sham eigenvalues and eigenfunctions.
  Solving real generalised eigenvalue problem by standard LAPACK (fast)
  Determining occupation numbers for Kohn-Sham eigenstates.
  | Chemical potential (Fermi level) in eV                 : -.81456539E+01
  | Error in electron count due to remaining E_F inaccuracy: -.84448004E-11
  | Maximum occupation number of highest empty state:  0.00E+00

  Writing Kohn-Sham eigenvalues.

  State    Occupation    Eigenvalue [Ha]    Eigenvalue [eV]
      1       2.00000         -19.044513         -518.22756
      2       2.00000         -19.044287         -518.22143
      3       2.00000          -1.393878          -37.92935
      4       2.00000          -0.812260          -22.10271
      5       2.00000          -0.617649          -16.80707
      6       2.00000          -0.617649          -16.80707
      7       2.00000          -0.606507          -16.50391
      8       0.50005          -0.299172           -8.14089
      9       0.49995          -0.299172           -8.14088
     10       0.00000           0.042756            1.16345
     11       0.00000           0.050695            1.37949
     12       0.00000           0.078036            2.12348
     13       0.00000           0.078036            2.12348
     14       0.00000           0.157523            4.28642

  Highest occupied state (VBM) at    -16.50390702 eV
  | Occupation number:      2.00000000

  Lowest unoccupied state (CBM) at    -8.14088508 eV
  | Occupation number:      0.50005290

  Overall HOMO-LUMO gap:      8.36302193 eV.

  Total energy components:
  | Sum of eigenvalues            :         -84.57265738 Ha       -2301.33909814 eV
  | XC energy correction          :         -16.76626665 Ha        -456.23332858 eV
  | XC potential correction       :          21.55503724 Ha         586.54240622 eV
  | Free-atom electrostatic energy:         -71.49642835 Ha       -1945.51680219 eV
  | Hartree energy correction     :           1.36238072 Ha          37.07226558 eV
  | Entropy correction            :          -0.00016515 Ha          -0.00449404 eV
  | ---------------------------
  | Total energy                  :        -149.91793443 Ha       -4079.47455710 eV
  | Total energy, T -> 0          :        -149.91809958 Ha       -4079.47905114 eV  <-- do not rely on this value for anything but (periodic) metals
  | Electronic free energy        :        -149.91826473 Ha       -4079.48354518 eV

  Derived energy quantities:
  | Kinetic energy                :         149.85322489 Ha        4077.71372093 eV
  | Electrostatic energy          :        -283.00489266 Ha       -7700.95494945 eV
  | Energy correction for multipole
  | error in Hartree potential    :          -0.00048338 Ha          -0.01315337 eV
  | Sum of eigenvalues per atom                           :       -1150.66954907 eV
  | Total energy (T->0) per atom                          :       -2039.73952557 eV  <-- do not rely on this value for anything but (periodic) metals
  | Electronic free energy per atom                       :       -2039.74177259 eV

  Self-consistency convergence accuracy:
  | Change of charge density      :  0.2167E+00
  | Change of sum of eigenvalues  : -0.5125E+02 eV
  | Change of total energy        :  0.2623E+01 eV

  End self-consistency iteration #     1       :  max(cpu_time)    wall_clock(cpu1)
  | Time for this iteration                    :        0.105 s           0.104 s
  | Charge density update                      :        0.030 s           0.029 s
  | Density mixing                             :        0.002 s           0.002 s
  | Hartree multipole update                   :        0.004 s           0.003 s
  | Hartree multipole summation                :        0.026 s           0.026 s
  | Integration                                :        0.042 s           0.042 s
  | Solution of K.-S. eqns.                    :        0.001 s           0.001 s
  | Total energy evaluation                    :        0.001 s           0.001 s
------------------------------------------------------------

------------------------------------------------------------
          Begin self-consistency iteration #    2

  Date     :  20190722, Time     :  144535.110
------------------------------------------------------------
  Evaluating new KS density.
  Integration grid: deviation in total charge (<rho> - N_e) =  -8.471446E-12
  Pulay mixing of updated and previous charge densities.

  Evaluating partitioned Hartree potential by multipole expansion.
  | Analytical far-field extrapolation by fixed multipoles:
  | Hartree multipole sum: apparent total charge =   0.551815E+00
  Summing up the Hartree potential.
  Time summed over all CPUs for potential: real work        0.097 s, elapsed        0.097 s
  | RMS charge density error from multipole expansion :   0.501907E-03

  Integrating Hamiltonian matrix: batch-based integration.
  Time summed over all CPUs for integration: real work        0.165 s, elapsed        0.166 s

  Updating Kohn-Sham eigenvalues, eigenvectors, occupation numbers, and Fermi level.
  Solving generalized eigenproblem
  Updating Kohn-Sham eigenvalues and eigenfunctions.
  Solving real generalised eigenvalue problem by standard LAPACK (fast)
  Determining occupation numbers for Kohn-Sham eigenstates.
  | Chemical potential (Fermi level) in eV                 : -.13068257E+02
  | Error in electron count due to remaining E_F inaccuracy: 0.96562758E-11
  | Maximum occupation number of highest empty state:  0.00E+00

  Highest occupied state (VBM) at    -21.32512776 eV
  | Occupation number:      2.00000000

  Lowest unoccupied state (CBM) at   -13.06349996 eV
  | Occupation number:      0.50109864

  Overall HOMO-LUMO gap:      8.26162780 eV.

  Total energy components:
  | Sum of eigenvalues            :         -87.48390036 Ha       -2380.55805036 eV
  | XC energy correction          :         -16.55194532 Ha        -450.40134837 eV
  | XC potential correction       :          21.27435136 Ha         578.90455491 eV
  | Free-atom electrostatic energy:         -71.49642835 Ha       -1945.51680219 eV
  | Hartree energy correction     :           4.43308961 Ha         120.63050604 eV
  | Entropy correction            :          -0.00016515 Ha          -0.00449403 eV
  | ---------------------------
  | Total energy                  :        -149.82483306 Ha       -4076.94113997 eV
  | Total energy, T -> 0          :        -149.82499821 Ha       -4076.94563401 eV  <-- do not rely on this value for anything but (periodic) metals
  | Electronic free energy        :        -149.82516336 Ha       -4076.95012804 eV

  Derived energy quantities:
  | Kinetic energy                :         149.15862958 Ha        4058.81282109 eV
  | Electrostatic energy          :        -282.43151732 Ha       -7685.35261269 eV
  | Energy correction for multipole
  | error in Hartree potential    :          -0.00037775 Ha          -0.01027920 eV
  | Sum of eigenvalues per atom                           :       -1190.27902518 eV
  | Total energy (T->0) per atom                          :       -2038.47281700 eV  <-- do not rely on this value for anything but (periodic) metals
  | Electronic free energy per atom                       :       -2038.47506402 eV

  Self-consistency convergence accuracy:
  | Change of charge density      :  0.1326E+00
  | Change of sum of eigenvalues  : -0.7922E+02 eV
  | Change of total energy        :  0.2533E+01 eV

  End self-consistency iteration #     2       :  max(cpu_time)    wall_clock(cpu1)
  | Time for this iteration                    :        0.105 s           0.105 s
  | Charge density update                      :        0.030 s           0.029 s
  | Density mixing                             :        0.001 s           0.002 s
  | Hartree multipole update                   :        0.004 s           0.004 s
  | Hartree multipole summation                :        0.026 s           0.025 s
  | Integration                                :        0.042 s           0.041 s
  | Solution of K.-S. eqns.                    :        0.001 s           0.002 s
  | Total energy evaluation                    :        0.001 s           0.000 s
------------------------------------------------------------

------------------------------------------------------------
          Begin self-consistency iteration #    3

  Date     :  20190722, Time     :  144535.216
------------------------------------------------------------
  Evaluating new KS density.
  Integration grid: deviation in total charge (<rho> - N_e) =   9.624301E-12
  Pulay mixing of updated and previous charge densities.

  Evaluating partitioned Hartree potential by multipole expansion.
  | Analytical far-field extrapolation by fixed multipoles:
  | Hartree multipole sum: apparent total charge =   0.102655E+01
  Summing up the Hartree potential.
  Time summed over all CPUs for potential: real work        0.096 s, elapsed        0.097 s
  | RMS charge density error from multipole expansion :   0.487821E-03

  Integrating Hamiltonian matrix: batch-based integration.
  Time summed over all CPUs for integration: real work        0.164 s, elapsed        0.166 s

  Updating Kohn-Sham eigenvalues, eigenvectors, occupation numbers, and Fermi level.
  Solving generalized eigenproblem
  Updating Kohn-Sham eigenvalues and eigenfunctions.
  Solving real generalised eigenvalue problem by standard LAPACK (fast)
  Determining occupation numbers for Kohn-Sham eigenstates.
  | Chemical potential (Fermi level) in eV                 : -.18051852E+02
  | Error in electron count due to remaining E_F inaccuracy: 0.22506441E-11
  | Maximum occupation number of highest empty state:  0.00E+00

  Highest occupied state (VBM) at    -26.23631164 eV
  | Occupation number:      2.00000000

  Lowest unoccupied state (CBM) at   -18.04770439 eV
  | Occupation number:      0.55745336

  Overall HOMO-LUMO gap:      8.18860725 eV.

  Total energy components:
  | Sum of eigenvalues            :         -90.19477082 Ha       -2454.32458867 eV
  | XC energy correction          :         -16.41991464 Ha        -446.80861075 eV
  | XC potential correction       :          21.10134570 Ha         574.19683136 eV
  | Free-atom electrostatic energy:         -71.49642835 Ha       -1945.51680219 eV
  | Hartree energy correction     :           7.21599696 Ha         196.35726795 eV
  | Entropy correction            :          -0.00016448 Ha          -0.00447565 eV
  | ---------------------------
  | Total energy                  :        -149.79377114 Ha       -4076.09590230 eV
  | Total energy, T -> 0          :        -149.79393562 Ha       -4076.10037796 eV  <-- do not rely on this value for anything but (periodic) metals
  | Electronic free energy        :        -149.79410010 Ha       -4076.10485361 eV

  Derived energy quantities:
  | Kinetic energy                :         149.28525065 Ha        4062.25835569 eV
  | Electrostatic energy          :        -282.65910716 Ha       -7691.54564724 eV
  | Energy correction for multipole
  | error in Hartree potential    :          -0.00053502 Ha          -0.01455871 eV
  | Sum of eigenvalues per atom                           :       -1227.16229434 eV
  | Total energy (T->0) per atom                          :       -2038.05018898 eV  <-- do not rely on this value for anything but (periodic) metals
  | Electronic free energy per atom                       :       -2038.05242680 eV

  Self-consistency convergence accuracy:
  | Change of charge density      :  0.5894E-01
  | Change of sum of eigenvalues  : -0.7377E+02 eV
  | Change of total energy        :  0.8452E+00 eV

  End self-consistency iteration #     3       :  max(cpu_time)    wall_clock(cpu1)
  | Time for this iteration                    :        0.104 s           0.104 s
  | Charge density update                      :        0.030 s           0.030 s
  | Density mixing                             :        0.002 s           0.002 s
  | Hartree multipole update                   :        0.004 s           0.003 s
  | Hartree multipole summation                :        0.025 s           0.025 s
  | Integration                                :        0.042 s           0.042 s
  | Solution of K.-S. eqns.                    :        0.001 s           0.001 s
  | Total energy evaluation                    :        0.001 s           0.001 s
------------------------------------------------------------

------------------------------------------------------------
          Begin self-consistency iteration #    4

  Date     :  20190722, Time     :  144535.321
------------------------------------------------------------
  Evaluating new KS density.
  Integration grid: deviation in total charge (<rho> - N_e) =   2.437162E-12
  Pulay mixing of updated and previous charge densities.

  Evaluating partitioned Hartree potential by multipole expansion.
  | Analytical far-field extrapolation by fixed multipoles:
  | Hartree multipole sum: apparent total charge =   0.101884E+01
  Summing up the Hartree potential.
  Time summed over all CPUs for potential: real work        0.097 s, elapsed        0.097 s
  | RMS charge density error from multipole expansion :   0.486973E-03

  Integrating Hamiltonian matrix: batch-based integration.
  Time summed over all CPUs for integration: real work        0.164 s, elapsed        0.166 s

  Updating Kohn-Sham eigenvalues, eigenvectors, occupation numbers, and Fermi level.
  Solving generalized eigenproblem
  Updating Kohn-Sham eigenvalues and eigenfunctions.
  Solving real generalised eigenvalue problem by standard LAPACK (fast)
  Determining occupation numbers for Kohn-Sham eigenstates.
  | Chemical potential (Fermi level) in eV                 : -.17907195E+02
  | Error in electron count due to remaining E_F inaccuracy: 0.16166624E-10
  | Maximum occupation number of highest empty state:  0.00E+00

  Highest occupied state (VBM) at    -26.09574384 eV
  | Occupation number:      2.00000000

  Lowest unoccupied state (CBM) at   -17.90324394 eV
  | Occupation number:      0.57631607

  Overall HOMO-LUMO gap:      8.19249990 eV.

  Total energy components:
  | Sum of eigenvalues            :         -90.10578119 Ha       -2451.90305770 eV
  | XC energy correction          :         -16.42763983 Ha        -447.01882392 eV
  | XC potential correction       :          21.11146262 Ha         574.47212675 eV
  | Free-atom electrostatic energy:         -71.49642835 Ha       -1945.51680219 eV
  | Hartree energy correction     :           7.12488400 Ha         193.87795806 eV
  | Entropy correction            :          -0.00016396 Ha          -0.00446157 eV
  | ---------------------------
  | Total energy                  :        -149.79350275 Ha       -4076.08859898 eV
  | Total energy, T -> 0          :        -149.79366671 Ha       -4076.09306055 eV  <-- do not rely on this value for anything but (periodic) metals
  | Electronic free energy        :        -149.79383067 Ha       -4076.09752211 eV

  Derived energy quantities:
  | Kinetic energy                :         149.32812172 Ha        4063.42493668 eV
  | Electrostatic energy          :        -282.69398464 Ha       -7692.49471175 eV
  | Energy correction for multipole
  | error in Hartree potential    :          -0.00054221 Ha          -0.01475431 eV
  | Sum of eigenvalues per atom                           :       -1225.95152885 eV
  | Total energy (T->0) per atom                          :       -2038.04653027 eV  <-- do not rely on this value for anything but (periodic) metals
  | Electronic free energy per atom                       :       -2038.04876106 eV

  Self-consistency convergence accuracy:
  | Change of charge density      :  0.3128E-01
  | Change of sum of eigenvalues  :  0.2422E+01 eV
  | Change of total energy        :  0.7303E-02 eV

  End self-consistency iteration #     4       :  max(cpu_time)    wall_clock(cpu1)
  | Time for this iteration                    :        0.104 s           0.104 s
  | Charge density update                      :        0.030 s           0.030 s
  | Density mixing                             :        0.002 s           0.002 s
  | Hartree multipole update                   :        0.004 s           0.003 s
  | Hartree multipole summation                :        0.025 s           0.025 s
  | Integration                                :        0.042 s           0.042 s
  | Solution of K.-S. eqns.                    :        0.001 s           0.001 s
  | Total energy evaluation                    :        0.001 s           0.001 s
------------------------------------------------------------

------------------------------------------------------------
          Begin self-consistency iteration #    5

  Date     :  20190722, Time     :  144535.426
------------------------------------------------------------
  Evaluating new KS density.
  Integration grid: deviation in total charge (<rho> - N_e) =   1.612399E-11
  Pulay mixing of updated and previous charge densities.

  Evaluating partitioned Hartree potential by multipole expansion.
  | Analytical far-field extrapolation by fixed multipoles:
  | Hartree multipole sum: apparent total charge =   0.993569E+00
  Summing up the Hartree potential.
  Time summed over all CPUs for potential: real work        0.096 s, elapsed        0.097 s
  | RMS charge density error from multipole expansion :   0.484981E-03

  Integrating Hamiltonian matrix: batch-based integration.
  Time summed over all CPUs for integration: real work        0.164 s, elapsed        0.166 s

  Updating Kohn-Sham eigenvalues, eigenvectors, occupation numbers, and Fermi level.
  Solving generalized eigenproblem
  Updating Kohn-Sham eigenvalues and eigenfunctions.
  Solving real generalised eigenvalue problem by standard LAPACK (fast)
  Determining occupation numbers for Kohn-Sham eigenstates.
  | Chemical potential (Fermi level) in eV                 : -.17461443E+02
  | Error in electron count due to remaining E_F inaccuracy: 0.10841106E-10
  | Maximum occupation number of highest empty state:  0.00E+00

  Highest occupied state (VBM) at    -25.66196466 eV
  | Occupation number:      2.00000000

  Lowest unoccupied state (CBM) at   -17.45668383 eV
  | Occupation number:      0.50089452

  Overall HOMO-LUMO gap:      8.20528084 eV.

  Total energy components:
  | Sum of eigenvalues            :         -89.83421724 Ha       -2444.51342661 eV
  | XC energy correction          :         -16.45044744 Ha        -447.63945051 eV
  | XC potential correction       :          21.14133283 Ha         575.28493652 eV
  | Free-atom electrostatic energy:         -71.49642835 Ha       -1945.51680219 eV
  | Hartree energy correction     :           6.84666840 Ha         186.30732651 eV
  | Entropy correction            :          -0.00016515 Ha          -0.00449403 eV
  | ---------------------------
  | Total energy                  :        -149.79309180 Ha       -4076.07741628 eV
  | Total energy, T -> 0          :        -149.79325695 Ha       -4076.08191032 eV  <-- do not rely on this value for anything but (periodic) metals
  | Electronic free energy        :        -149.79342210 Ha       -4076.08640435 eV

  Derived energy quantities:
  | Kinetic energy                :         149.44767659 Ha        4066.67819039 eV
  | Electrostatic energy          :        -282.79032095 Ha       -7695.11615617 eV
  | Energy correction for multipole
  | error in Hartree potential    :          -0.00056098 Ha          -0.01526516 eV
  | Sum of eigenvalues per atom                           :       -1222.25671331 eV
  | Total energy (T->0) per atom                          :       -2038.04095516 eV  <-- do not rely on this value for anything but (periodic) metals
  | Electronic free energy per atom                       :       -2038.04320218 eV

  Self-consistency convergence accuracy:
  | Change of charge density      :  0.3278E-01
  | Change of sum of eigenvalues  :  0.7390E+01 eV
  | Change of total energy        :  0.1118E-01 eV

  End self-consistency iteration #     5       :  max(cpu_time)    wall_clock(cpu1)
  | Time for this iteration                    :        0.104 s           0.105 s
  | Charge density update                      :        0.030 s           0.030 s
  | Density mixing                             :        0.002 s           0.003 s
  | Hartree multipole update                   :        0.004 s           0.003 s
  | Hartree multipole summation                :        0.025 s           0.025 s
  | Integration                                :        0.042 s           0.042 s
  | Solution of K.-S. eqns.                    :        0.001 s           0.001 s
  | Total energy evaluation                    :        0.000 s           0.001 s
------------------------------------------------------------

------------------------------------------------------------
          Begin self-consistency iteration #    6

  Date     :  20190722, Time     :  144535.532
------------------------------------------------------------
  Evaluating new KS density.
  Integration grid: deviation in total charge (<rho> - N_e) =   1.086242E-11
  Pulay mixing of updated and previous charge densities.

  Evaluating partitioned Hartree potential by multipole expansion.
  | Analytical far-field extrapolation by fixed multipoles:
  | Hartree multipole sum: apparent total charge =   0.999240E+00
  Summing up the Hartree potential.
  Time summed over all CPUs for potential: real work        0.096 s, elapsed        0.097 s
  | RMS charge density error from multipole expansion :   0.496319E-03

  Integrating Hamiltonian matrix: batch-based integration.
  Time summed over all CPUs for integration: real work        0.164 s, elapsed        0.165 s

  Updating Kohn-Sham eigenvalues, eigenvectors, occupation numbers, and Fermi level.
  Solving generalized eigenproblem
  Updating Kohn-Sham eigenvalues and eigenfunctions.
  Solving real generalised eigenvalue problem by standard LAPACK (fast)
  Determining occupation numbers for Kohn-Sham eigenstates.
  | Chemical potential (Fermi level) in eV                 : -.17425011E+02
  | Error in electron count due to remaining E_F inaccuracy: -.25220181E-09
  | Maximum occupation number of highest empty state:  0.00E+00

  Highest occupied state (VBM) at    -25.62500945 eV
  | Occupation number:      2.00000000

  Lowest unoccupied state (CBM) at   -17.42025507 eV
  | Occupation number:      0.50120481

  Overall HOMO-LUMO gap:      8.20475438 eV.

  Total energy components:
  | Sum of eigenvalues            :         -89.80903741 Ha       -2443.82824864 eV
  | XC energy correction          :         -16.45583743 Ha        -447.78611948 eV
  | XC potential correction       :          21.14849943 Ha         575.47994952 eV
  | Free-atom electrostatic energy:         -71.49642835 Ha       -1945.51680219 eV
  | Hartree energy correction     :           6.81973499 Ha         185.57443101 eV
  | Entropy correction            :          -0.00016515 Ha          -0.00449403 eV
  | ---------------------------
  | Total energy                  :        -149.79306877 Ha       -4076.07678979 eV
  | Total energy, T -> 0          :        -149.79323392 Ha       -4076.08128382 eV  <-- do not rely on this value for anything but (periodic) metals
  | Electronic free energy        :        -149.79339908 Ha       -4076.08577785 eV

  Derived energy quantities:
  | Kinetic energy                :         149.46734096 Ha        4067.21328505 eV
  | Electrostatic energy          :        -282.80457231 Ha       -7695.50395535 eV
  | Energy correction for multipole
  | error in Hartree potential    :          -0.00055263 Ha          -0.01503773 eV
  | Sum of eigenvalues per atom                           :       -1221.91412432 eV
  | Total energy (T->0) per atom                          :       -2038.04064191 eV  <-- do not rely on this value for anything but (periodic) metals
  | Electronic free energy per atom                       :       -2038.04288892 eV

  Self-consistency convergence accuracy:
  | Change of charge density      :  0.6636E-02
  | Change of sum of eigenvalues  :  0.6852E+00 eV
  | Change of total energy        :  0.6265E-03 eV

  End self-consistency iteration #     6       :  max(cpu_time)    wall_clock(cpu1)
  | Time for this iteration                    :        0.104 s           0.104 s
  | Charge density update                      :        0.030 s           0.029 s
  | Density mixing                             :        0.003 s           0.003 s
  | Hartree multipole update                   :        0.004 s           0.003 s
  | Hartree multipole summation                :        0.025 s           0.025 s
  | Integration                                :        0.042 s           0.042 s
  | Solution of K.-S. eqns.                    :        0.001 s           0.001 s
  | Total energy evaluation                    :        0.000 s           0.000 s
------------------------------------------------------------

------------------------------------------------------------
          Begin self-consistency iteration #    7

  Date     :  20190722, Time     :  144535.638
------------------------------------------------------------
  Evaluating new KS density.
  Integration grid: deviation in total charge (<rho> - N_e) =  -2.520579E-10
  Pulay mixing of updated and previous charge densities.

  Evaluating partitioned Hartree potential by multipole expansion.
  | Analytical far-field extrapolation by fixed multipoles:
  | Hartree multipole sum: apparent total charge =   0.999617E+00
  Summing up the Hartree potential.
  Time summed over all CPUs for potential: real work        0.096 s, elapsed        0.096 s
  | RMS charge density error from multipole expansion :   0.496953E-03

  Integrating Hamiltonian matrix: batch-based integration.
  Time summed over all CPUs for integration: real work        0.164 s, elapsed        0.166 s

  Updating Kohn-Sham eigenvalues, eigenvectors, occupation numbers, and Fermi level.
  Solving generalized eigenproblem
  Updating Kohn-Sham eigenvalues and eigenfunctions.
  Solving real generalised eigenvalue problem by standard LAPACK (fast)
  Determining occupation numbers for Kohn-Sham eigenstates.
  | Chemical potential (Fermi level) in eV                 : -.17426397E+02
  | Error in electron count due to remaining E_F inaccuracy: -.10802541E-08
  | Maximum occupation number of highest empty state:  0.00E+00

  Highest occupied state (VBM) at    -25.62777967 eV
  | Occupation number:      2.00000000

  Lowest unoccupied state (CBM) at   -17.42165319 eV
  | Occupation number:      0.50229752

  Overall HOMO-LUMO gap:      8.20612649 eV.

  Total energy components:
  | Sum of eigenvalues            :         -89.81006663 Ha       -2443.85625517 eV
  | XC energy correction          :         -16.45573877 Ha        -447.78343478 eV
  | XC potential correction       :          21.14838105 Ha         575.47672825 eV
  | Free-atom electrostatic energy:         -71.49642835 Ha       -1945.51680219 eV
  | Hartree energy correction     :           6.82078405 Ha         185.60297746 eV
  | Entropy correction            :          -0.00016515 Ha          -0.00449401 eV
  | ---------------------------
  | Total energy                  :        -149.79306865 Ha       -4076.07678644 eV
  | Total energy, T -> 0          :        -149.79323380 Ha       -4076.08128045 eV  <-- do not rely on this value for anything but (periodic) metals
  | Electronic free energy        :        -149.79339895 Ha       -4076.08577446 eV

  Derived energy quantities:
  | Kinetic energy                :         149.46480571 Ha        4067.14429740 eV
  | Electrostatic energy          :        -282.80213559 Ha       -7695.43764906 eV
  | Energy correction for multipole
  | error in Hartree potential    :          -0.00055116 Ha          -0.01499785 eV
  | Sum of eigenvalues per atom                           :       -1221.92812759 eV
  | Total energy (T->0) per atom                          :       -2038.04064022 eV  <-- do not rely on this value for anything but (periodic) metals
  | Electronic free energy per atom                       :       -2038.04288723 eV

  Self-consistency convergence accuracy:
  | Change of charge density      :  0.7540E-03
  | Change of sum of eigenvalues  : -0.2801E-01 eV
  | Change of total energy        :  0.3348E-05 eV

  End self-consistency iteration #     7       :  max(cpu_time)    wall_clock(cpu1)
  | Time for this iteration                    :        0.105 s           0.104 s
  | Charge density update                      :        0.030 s           0.029 s
  | Density mixing                             :        0.003 s           0.003 s
  | Hartree multipole update                   :        0.005 s           0.004 s
  | Hartree multipole summation                :        0.025 s           0.024 s
  | Integration                                :        0.042 s           0.042 s
  | Solution of K.-S. eqns.                    :        0.001 s           0.001 s
  | Total energy evaluation                    :        0.000 s           0.000 s
------------------------------------------------------------

------------------------------------------------------------
          Begin self-consistency iteration #    8

  Date     :  20190722, Time     :  144535.744
------------------------------------------------------------
  Evaluating new KS density.
  Integration grid: deviation in total charge (<rho> - N_e) =  -1.080249E-09
  Pulay mixing of updated and previous charge densities.

  Evaluating partitioned Hartree potential by multipole expansion.
  | Analytical far-field extrapolation by fixed multipoles:
  | Hartree multipole sum: apparent total charge =   0.100006E+01
  Summing up the Hartree potential.
  Time summed over all CPUs for potential: real work        0.096 s, elapsed        0.096 s
  | RMS charge density error from multipole expansion :   0.497845E-03

  Integrating Hamiltonian matrix: batch-based integration.
  Time summed over all CPUs for integration: real work        0.165 s, elapsed        0.166 s

  Updating Kohn-Sham eigenvalues, eigenvectors, occupation numbers, and Fermi level.
  Solving generalized eigenproblem
  Updating Kohn-Sham eigenvalues and eigenfunctions.
  Solving real generalised eigenvalue problem by standard LAPACK (fast)
  Determining occupation numbers for Kohn-Sham eigenstates.
  | Chemical potential (Fermi level) in eV                 : -.17420702E+02
  | Error in electron count due to remaining E_F inaccuracy: -.10885515E-10
  | Maximum occupation number of highest empty state:  0.00E+00

  Highest occupied state (VBM) at    -25.62285046 eV
  | Occupation number:      2.00000000

  Lowest unoccupied state (CBM) at   -17.41593341 eV
  | Occupation number:      0.50010676

  Overall HOMO-LUMO gap:      8.20691705 eV.

  Total energy components:
  | Sum of eigenvalues            :         -89.80614259 Ha       -2443.74947661 eV
  | XC energy correction          :         -16.45635298 Ha        -447.80014841 eV
  | XC potential correction       :          21.14919632 Ha         575.49891285 eV
  | Free-atom electrostatic energy:         -71.49642835 Ha       -1945.51680219 eV
  | Hartree energy correction     :           6.81665924 Ha         185.49073562 eV
  | Entropy correction            :          -0.00016515 Ha          -0.00449404 eV
  | ---------------------------
  | Total energy                  :        -149.79306837 Ha       -4076.07677874 eV
  | Total energy, T -> 0          :        -149.79323352 Ha       -4076.08127278 eV  <-- do not rely on this value for anything but (periodic) metals
  | Electronic free energy        :        -149.79339867 Ha       -4076.08576682 eV

  Derived energy quantities:
  | Kinetic energy                :         149.46749587 Ha        4067.21750024 eV
  | Electrostatic energy          :        -282.80421125 Ha       -7695.49413058 eV
  | Energy correction for multipole
  | error in Hartree potential    :          -0.00055066 Ha          -0.01498430 eV
  | Sum of eigenvalues per atom                           :       -1221.87473831 eV
  | Total energy (T->0) per atom                          :       -2038.04063639 eV  <-- do not rely on this value for anything but (periodic) metals
  | Electronic free energy per atom                       :       -2038.04288341 eV

  Self-consistency convergence accuracy:
  | Change of charge density      :  0.9884E-03
  | Change of sum of eigenvalues  :  0.1068E+00 eV
  | Change of total energy        :  0.7695E-05 eV

  End self-consistency iteration #     8       :  max(cpu_time)    wall_clock(cpu1)
  | Time for this iteration                    :        0.105 s           0.104 s
  | Charge density update                      :        0.030 s           0.029 s
  | Density mixing                             :        0.003 s           0.003 s
  | Hartree multipole update                   :        0.004 s           0.004 s
  | Hartree multipole summation                :        0.025 s           0.024 s
  | Integration                                :        0.042 s           0.042 s
  | Solution of K.-S. eqns.                    :        0.001 s           0.001 s
  | Total energy evaluation                    :        0.000 s           0.000 s
------------------------------------------------------------

------------------------------------------------------------
          Begin self-consistency iteration #    9

  Date     :  20190722, Time     :  144535.849
------------------------------------------------------------
  Evaluating new KS density.
  Integration grid: deviation in total charge (<rho> - N_e) =  -1.078782E-11
  Pulay mixing of updated and previous charge densities.

  Evaluating partitioned Hartree potential by multipole expansion.
  | Analytical far-field extrapolation by fixed multipoles:
  | Hartree multipole sum: apparent total charge =   0.100004E+01
  Summing up the Hartree potential.
  Time summed over all CPUs for potential: real work        0.096 s, elapsed        0.096 s
  | RMS charge density error from multipole expansion :   0.497869E-03

  Integrating Hamiltonian matrix: batch-based integration.
  Time summed over all CPUs for integration: real work        0.164 s, elapsed        0.165 s

  Updating Kohn-Sham eigenvalues, eigenvectors, occupation numbers, and Fermi level.
  Solving generalized eigenproblem
  Updating Kohn-Sham eigenvalues and eigenfunctions.
  Solving real generalised eigenvalue problem by standard LAPACK (fast)
  Determining occupation numbers for Kohn-Sham eigenstates.
  | Chemical potential (Fermi level) in eV                 : -.17420149E+02
  | Error in electron count due to remaining E_F inaccuracy: -.57731597E-11
  | Maximum occupation number of highest empty state:  0.00E+00

  Highest occupied state (VBM) at    -25.62230191 eV
  | Occupation number:      2.00000000

  Lowest unoccupied state (CBM) at   -17.41538198 eV
  | Occupation number:      0.50019779

  Overall HOMO-LUMO gap:      8.20691993 eV.

  Total energy components:
  | Sum of eigenvalues            :         -89.80580653 Ha       -2443.74033194 eV
  | XC energy correction          :         -16.45638745 Ha        -447.80108652 eV
  | XC potential correction       :          21.14924185 Ha         575.50015178 eV
  | Free-atom electrostatic energy:         -71.49642835 Ha       -1945.51680219 eV
  | Hartree energy correction     :           6.81631213 Ha         185.48129021 eV
  | Entropy correction            :          -0.00016515 Ha          -0.00449404 eV
  | ---------------------------
  | Total energy                  :        -149.79306836 Ha       -4076.07677865 eV
  | Total energy, T -> 0          :        -149.79323352 Ha       -4076.08127269 eV  <-- do not rely on this value for anything but (periodic) metals
  | Electronic free energy        :        -149.79339867 Ha       -4076.08576673 eV

  Derived energy quantities:
  | Kinetic energy                :         149.46763106 Ha        4067.22117919 eV
  | Electrostatic energy          :        -282.80431197 Ha       -7695.49687133 eV
  | Energy correction for multipole
  | error in Hartree potential    :          -0.00055064 Ha          -0.01498364 eV
  | Sum of eigenvalues per atom                           :       -1221.87016597 eV
  | Total energy (T->0) per atom                          :       -2038.04063635 eV  <-- do not rely on this value for anything but (periodic) metals
  | Electronic free energy per atom                       :       -2038.04288337 eV

  Self-consistency convergence accuracy:
  | Change of charge density      :  0.7913E-04
  | Change of sum of eigenvalues  :  0.9145E-02 eV
  | Change of total energy        :  0.8832E-07 eV

  End self-consistency iteration #     9       :  max(cpu_time)    wall_clock(cpu1)
  | Time for this iteration                    :        0.105 s           0.104 s
  | Charge density update                      :        0.030 s           0.029 s
  | Density mixing                             :        0.003 s           0.003 s
  | Hartree multipole update                   :        0.004 s           0.003 s
  | Hartree multipole summation                :        0.026 s           0.025 s
  | Integration                                :        0.042 s           0.042 s
  | Solution of K.-S. eqns.                    :        0.001 s           0.001 s
  | Total energy evaluation                    :        0.000 s           0.001 s
------------------------------------------------------------

------------------------------------------------------------
          Begin self-consistency iteration #   10

  Date     :  20190722, Time     :  144535.956
------------------------------------------------------------
  Evaluating new KS density.
  Integration grid: deviation in total charge (<rho> - N_e) =  -5.863754E-12
  Pulay mixing of updated and previous charge densities.

  Evaluating partitioned Hartree potential by multipole expansion.
  | Analytical far-field extrapolation by fixed multipoles:
  | Hartree multipole sum: apparent total charge =   0.100002E+01
  Summing up the Hartree potential.
  Time summed over all CPUs for potential: real work        0.096 s, elapsed        0.096 s
  | RMS charge density error from multipole expansion :   0.497892E-03

  Integrating Hamiltonian matrix: batch-based integration.
  Time summed over all CPUs for integration: real work        0.164 s, elapsed        0.165 s

  Updating Kohn-Sham eigenvalues, eigenvectors, occupation numbers, and Fermi level.
  Solving generalized eigenproblem
  Updating Kohn-Sham eigenvalues and eigenfunctions.
  Solving real generalised eigenvalue problem by standard LAPACK (fast)
  Determining occupation numbers for Kohn-Sham eigenstates.
  | Chemical potential (Fermi level) in eV                 : -.17419525E+02
  | Error in electron count due to remaining E_F inaccuracy: -.25988101E-11
  | Maximum occupation number of highest empty state:  0.00E+00

  Highest occupied state (VBM) at    -25.62168243 eV
  | Occupation number:      2.00000000

  Lowest unoccupied state (CBM) at   -17.41475895 eV
  | Occupation number:      0.50028434

  Overall HOMO-LUMO gap:      8.20692348 eV.

  Total energy components:
  | Sum of eigenvalues            :         -89.80543142 Ha       -2443.73012465 eV
  | XC energy correction          :         -16.45642415 Ha        -447.80208505 eV
  | XC potential correction       :          21.14929032 Ha         575.50147080 eV
  | Free-atom electrostatic energy:         -71.49642835 Ha       -1945.51680219 eV
  | Hartree energy correction     :           6.81592524 Ha         185.47076249 eV
  | Entropy correction            :          -0.00016515 Ha          -0.00449404 eV
  | ---------------------------
  | Total energy                  :        -149.79306836 Ha       -4076.07677859 eV
  | Total energy, T -> 0          :        -149.79323351 Ha       -4076.08127263 eV  <-- do not rely on this value for anything but (periodic) metals
  | Electronic free energy        :        -149.79339867 Ha       -4076.08576667 eV

  Derived energy quantities:
  | Kinetic energy                :         149.46776457 Ha        4067.22481202 eV
  | Electrostatic energy          :        -282.80440878 Ha       -7695.49950556 eV
  | Energy correction for multipole
  | error in Hartree potential    :          -0.00055061 Ha          -0.01498281 eV
  | Sum of eigenvalues per atom                           :       -1221.86506233 eV
  | Total energy (T->0) per atom                          :       -2038.04063632 eV  <-- do not rely on this value for anything but (periodic) metals
  | Electronic free energy per atom                       :       -2038.04288334 eV

  Self-consistency convergence accuracy:
  | Change of charge density      :  0.8534E-04
  | Change of sum of eigenvalues  :  0.1021E-01 eV
  | Change of total energy        :  0.6114E-07 eV

  End self-consistency iteration #    10       :  max(cpu_time)    wall_clock(cpu1)
  | Time for this iteration                    :        0.105 s           0.105 s
  | Charge density update                      :        0.030 s           0.030 s
  | Density mixing                             :        0.003 s           0.003 s
  | Hartree multipole update                   :        0.004 s           0.003 s
  | Hartree multipole summation                :        0.025 s           0.025 s
  | Integration                                :        0.042 s           0.042 s
  | Solution of K.-S. eqns.                    :        0.001 s           0.001 s
  | Total energy evaluation                    :        0.000 s           0.001 s
------------------------------------------------------------

------------------------------------------------------------
          Begin self-consistency iteration #   11

  Date     :  20190722, Time     :  144536.062
------------------------------------------------------------
  Evaluating new KS density.
  Integration grid: deviation in total charge (<rho> - N_e) =  -2.726708E-12
  Pulay mixing of updated and previous charge densities.

  Evaluating partitioned Hartree potential by multipole expansion.
  | Analytical far-field extrapolation by fixed multipoles:
  | Hartree multipole sum: apparent total charge =   0.999993E+00
  Summing up the Hartree potential.
  Time summed over all CPUs for potential: real work        0.096 s, elapsed        0.096 s
  | RMS charge density error from multipole expansion :   0.497932E-03

  Integrating Hamiltonian matrix: batch-based integration.
  Time summed over all CPUs for integration: real work        0.164 s, elapsed        0.165 s

  Updating Kohn-Sham eigenvalues, eigenvectors, occupation numbers, and Fermi level.
  Solving generalized eigenproblem
  Updating Kohn-Sham eigenvalues and eigenfunctions.
  Solving real generalised eigenvalue problem by standard LAPACK (fast)
  Determining occupation numbers for Kohn-Sham eigenstates.
  | Chemical potential (Fermi level) in eV                 : -.17418572E+02
  | Error in electron count due to remaining E_F inaccuracy: -.77093887E-12
  | Maximum occupation number of highest empty state:  0.00E+00

  Highest occupied state (VBM) at    -25.62073244 eV
  | Occupation number:      2.00000000

  Lowest unoccupied state (CBM) at   -17.41380253 eV
  | Occupation number:      0.50000254

  Overall HOMO-LUMO gap:      8.20692991 eV.

  Total energy components:
  | Sum of eigenvalues            :         -89.80485747 Ha       -2443.71450650 eV
  | XC energy correction          :         -16.45648181 Ha        -447.80365404 eV
  | XC potential correction       :          21.14936653 Ha         575.50354447 eV
  | Free-atom electrostatic energy:         -71.49642835 Ha       -1945.51680219 eV
  | Hartree energy correction     :           6.81533274 Ha         185.45463969 eV
  | Entropy correction            :          -0.00016515 Ha          -0.00449404 eV
  | ---------------------------
  | Total energy                  :        -149.79306836 Ha       -4076.07677856 eV
  | Total energy, T -> 0          :        -149.79323351 Ha       -4076.08127260 eV  <-- do not rely on this value for anything but (periodic) metals
  | Electronic free energy        :        -149.79339867 Ha       -4076.08576664 eV

  Derived energy quantities:
  | Kinetic energy                :         149.46797494 Ha        4067.23053642 eV
  | Electrostatic energy          :        -282.80456149 Ha       -7695.50366095 eV
  | Energy correction for multipole
  | error in Hartree potential    :          -0.00055056 Ha          -0.01498137 eV
  | Sum of eigenvalues per atom                           :       -1221.85725325 eV
  | Total energy (T->0) per atom                          :       -2038.04063630 eV  <-- do not rely on this value for anything but (periodic) metals
  | Electronic free energy per atom                       :       -2038.04288332 eV

  Self-consistency convergence accuracy:
  | Change of charge density      :  0.1033E-03
  | Change of sum of eigenvalues  :  0.1562E-01 eV
  | Change of total energy        :  0.2966E-07 eV

  End self-consistency iteration #    11       :  max(cpu_time)    wall_clock(cpu1)
  | Time for this iteration                    :        0.104 s           0.104 s
  | Charge density update                      :        0.030 s           0.029 s
  | Density mixing                             :        0.002 s           0.003 s
  | Hartree multipole update                   :        0.004 s           0.004 s
  | Hartree multipole summation                :        0.025 s           0.025 s
  | Integration                                :        0.042 s           0.041 s
  | Solution of K.-S. eqns.                    :        0.001 s           0.001 s
  | Total energy evaluation                    :        0.000 s           0.000 s
------------------------------------------------------------

------------------------------------------------------------
          Begin self-consistency iteration #   12

  Date     :  20190722, Time     :  144536.168
------------------------------------------------------------
  Evaluating new KS density.
  Integration grid: deviation in total charge (<rho> - N_e) =  -7.567280E-13
  Pulay mixing of updated and previous charge densities.

  Evaluating partitioned Hartree potential by multipole expansion.
  | Analytical far-field extrapolation by fixed multipoles:
  | Hartree multipole sum: apparent total charge =   0.999994E+00
  Summing up the Hartree potential.
  Time summed over all CPUs for potential: real work        0.096 s, elapsed        0.096 s
  | RMS charge density error from multipole expansion :   0.497932E-03

  Integrating Hamiltonian matrix: batch-based integration.
  Time summed over all CPUs for integration: real work        0.164 s, elapsed        0.165 s

  Updating Kohn-Sham eigenvalues, eigenvectors, occupation numbers, and Fermi level.
  Solving generalized eigenproblem
  Updating Kohn-Sham eigenvalues and eigenfunctions.
  Solving real generalised eigenvalue problem by standard LAPACK (fast)
  Determining occupation numbers for Kohn-Sham eigenstates.
  | Chemical potential (Fermi level) in eV                 : -.17418578E+02
  | Error in electron count due to remaining E_F inaccuracy: -.85975671E-12
  | Maximum occupation number of highest empty state:  0.00E+00

  Highest occupied state (VBM) at    -25.62073919 eV
  | Occupation number:      2.00000000

  Lowest unoccupied state (CBM) at   -17.41380894 eV
  | Occupation number:      0.50001105

  Overall HOMO-LUMO gap:      8.20693024 eV.

  Total energy components:
  | Sum of eigenvalues            :         -89.80486081 Ha       -2443.71459736 eV
  | XC energy correction          :         -16.45648197 Ha        -447.80365833 eV
  | XC potential correction       :          21.14936675 Ha         575.50355045 eV
  | Free-atom electrostatic energy:         -71.49642835 Ha       -1945.51680219 eV
  | Hartree energy correction     :           6.81533602 Ha         185.45472887 eV
  | Entropy correction            :          -0.00016515 Ha          -0.00449404 eV
  | ---------------------------
  | Total energy                  :        -149.79306836 Ha       -4076.07677856 eV
  | Total energy, T -> 0          :        -149.79323351 Ha       -4076.08127260 eV  <-- do not rely on this value for anything but (periodic) metals
[...]
  | Total energy (T->0) per atom                          :       -2038.04063630 eV  <-- do not rely on this value for anything but (periodic) metals
  | Electronic free energy per atom                       :       -2038.04288332 eV

  Self-consistency convergence accuracy:
  | Change of charge density      :  0.1400E-05
  | Change of sum of eigenvalues  : -0.9086E-04 eV
  | Change of total energy        :  0.1392E-10 eV

  Electronic self-consistency reached - switching on the force computation.

  End self-consistency iteration #    12       :  max(cpu_time)    wall_clock(cpu1)
  | Time for this iteration                    :        0.105 s           0.104 s
  | Charge density & force component update    :        0.030 s           0.029 s
  | Density mixing                             :        0.003 s           0.003 s
  | Hartree multipole update                   :        0.005 s           0.004 s
  | Hartree multipole summation                :        0.025 s           0.024 s
  | Integration                                :        0.042 s           0.042 s
  | Solution of K.-S. eqns.                    :        0.001 s           0.001 s
  | Total energy evaluation                    :        0.000 s           0.001 s
------------------------------------------------------------

------------------------------------------------------------
          Begin self-consistency iteration #   13

  Date     :  20190722, Time     :  144536.274
------------------------------------------------------------
  Evaluating new KS density.
  Integration grid: deviation in total charge (<rho> - N_e) =  -7.034373E-13
  Pulay mixing of updated and previous charge densities.

  Evaluating partitioned Hartree potential by multipole expansion.
  | Analytical far-field extrapolation by fixed multipoles:
  | Hartree multipole sum: apparent total charge =   0.999998E+00
  Summing up the Hartree potential.
  Time summed over all CPUs for potential: real work        0.256 s, elapsed        0.262 s
  | RMS charge density error from multipole expansion :   0.497933E-03

  Integrating Hamiltonian matrix: batch-based integration.
  Time summed over all CPUs for integration: real work        0.164 s, elapsed        0.166 s

  Updating Kohn-Sham eigenvalues, eigenvectors, occupation numbers, and Fermi level.
  Solving generalized eigenproblem
  Updating Kohn-Sham eigenvalues and eigenfunctions.
  Solving real generalised eigenvalue problem by standard LAPACK (fast)
  Determining occupation numbers for Kohn-Sham eigenstates.
  | Chemical potential (Fermi level) in eV                 : -.17418614E+02
  | Error in electron count due to remaining E_F inaccuracy: -.10977885E-11
  | Maximum occupation number of highest empty state:  0.00E+00

  Highest occupied state (VBM) at    -25.62077655 eV
  | Occupation number:      2.00000000

  Lowest unoccupied state (CBM) at   -17.41384501 eV
  | Occupation number:      0.50000015

  Overall HOMO-LUMO gap:      8.20693155 eV.

  Total energy components:
  | Sum of eigenvalues            :         -89.80488071 Ha       -2443.71513893 eV
  | XC energy correction          :         -16.45648157 Ha        -447.80364747 eV
  | XC potential correction       :          21.14936625 Ha         575.50353699 eV
  | Free-atom electrostatic energy:         -71.49642835 Ha       -1945.51680219 eV
  | Hartree energy correction     :           6.81535602 Ha         185.45527303 eV
  | Entropy correction            :          -0.00016515 Ha          -0.00449404 eV
  | ---------------------------
  | Total energy                  :        -149.79306836 Ha       -4076.07677856 eV
  | Total energy, T -> 0          :        -149.79323351 Ha       -4076.08127260 eV  <-- do not rely on this value for anything but (periodic) metals
  | Electronic free energy        :        -149.79339867 Ha       -4076.08576664 eV

  Derived energy quantities:
  | Kinetic energy                :         149.46798277 Ha        4067.23074957 eV
  | Electrostatic energy          :        -282.80456956 Ha       -7695.50388067 eV
  | Energy correction for multipole
  | error in Hartree potential    :          -0.00055055 Ha          -0.01498133 eV
  | Sum of eigenvalues per atom                           :       -1221.85756946 eV
  | Total energy (T->0) per atom                          :       -2038.04063630 eV  <-- do not rely on this value for anything but (periodic) metals
  | Electronic free energy per atom                       :       -2038.04288332 eV

  atomic forces [eV/Ang]:
  -----------------------
  atom #    1
   Hellmann-Feynman              :  0.857852E-11 -0.194421E-11 -0.158244E+02
   Ionic forces                  :  0.000000E+00  0.000000E+00  0.000000E+00
   Multipole                     :  0.706506E-13 -0.131839E-13 -0.592429E-01
   Pulay + GGA                   :  0.000000E+00  0.000000E+00  0.000000E+00
   ----------------------------------------------------------------
   Total forces(   1)            :  0.864917E-11 -0.195739E-11 -0.158837E+02
  atom #    2
   Hellmann-Feynman              : -0.244765E-10 -0.326780E-10  0.158244E+02
   Ionic forces                  :  0.000000E+00  0.000000E+00  0.000000E+00
   Multipole                     : -0.123365E-12  0.133730E-12  0.592429E-01
   Pulay + GGA                   :  0.000000E+00  0.000000E+00  0.000000E+00
   ----------------------------------------------------------------
   Total forces(   2)            : -0.245998E-10 -0.325442E-10  0.158837E+02


  Self-consistency convergence accuracy:
  | Change of charge density      :  0.3958E-05
  | Change of sum of eigenvalues  : -0.5416E-03 eV
  | Change of total energy        :  0.3712E-09 eV
  | Change of forces              :  0.1588E+02 eV/A

  End self-consistency iteration #    13       :  max(cpu_time)    wall_clock(cpu1)
  | Time for this iteration                    :        0.147 s           0.147 s
  | Charge density & force component update    :        0.029 s           0.030 s
  | Density mixing                             :        0.003 s           0.002 s
  | Hartree multipole update                   :        0.005 s           0.004 s
  | Hartree multipole summation                :        0.067 s           0.066 s
  | Integration                                :        0.042 s           0.042 s
  | Solution of K.-S. eqns.                    :        0.001 s           0.001 s
  | Total energy evaluation                    :        0.001 s           0.002 s
------------------------------------------------------------

------------------------------------------------------------
          Begin self-consistency iteration #   14

  Date     :  20190722, Time     :  144536.422
------------------------------------------------------------
  Evaluating new KS density and force components.
  Integration grid: deviation in total charge (<rho> - N_e) =  -9.929835E-13
  Pulay mixing of updated and previous charge densities.

  Evaluating partitioned Hartree potential by multipole expansion.
  | Analytical far-field extrapolation by fixed multipoles:
  | Hartree multipole sum: apparent total charge =   0.999999E+00
  Summing up the Hartree potential.
  Time summed over all CPUs for potential: real work        0.255 s, elapsed        0.261 s
  | RMS charge density error from multipole expansion :   0.497933E-03

  Integrating Hamiltonian matrix: batch-based integration.
  Time summed over all CPUs for integration: real work        0.164 s, elapsed        0.166 s

  Updating Kohn-Sham eigenvalues, eigenvectors, occupation numbers, and Fermi level.
  Solving generalized eigenproblem
  Updating Kohn-Sham eigenvalues and eigenfunctions.
  Solving real generalised eigenvalue problem by standard LAPACK (fast)
  Determining occupation numbers for Kohn-Sham eigenstates.
  | Chemical potential (Fermi level) in eV                 : -.17418615E+02
  | Error in electron count due to remaining E_F inaccuracy: -.82245322E-12
  | Maximum occupation number of highest empty state:  0.00E+00

  Highest occupied state (VBM) at    -25.62077692 eV
  | Occupation number:      2.00000000

  Lowest unoccupied state (CBM) at   -17.41384538 eV
  | Occupation number:      0.50000016

  Overall HOMO-LUMO gap:      8.20693154 eV.

  Total energy components:
  | Sum of eigenvalues            :         -89.80488091 Ha       -2443.71514439 eV
  | XC energy correction          :         -16.45648156 Ha        -447.80364734 eV
  | XC potential correction       :          21.14936625 Ha         575.50353684 eV
  | Free-atom electrostatic energy:         -71.49642835 Ha       -1945.51680219 eV
  | Hartree energy correction     :           6.81535622 Ha         185.45527851 eV
  | Entropy correction            :          -0.00016515 Ha          -0.00449404 eV
  | ---------------------------
  | Total energy                  :        -149.79306836 Ha       -4076.07677856 eV
  | Total energy, T -> 0          :        -149.79323351 Ha       -4076.08127260 eV  <-- do not rely on this value for anything but (periodic) metals
  | Electronic free energy        :        -149.79339867 Ha       -4076.08576664 eV

  Derived energy quantities:
  | Kinetic energy                :         149.46798276 Ha        4067.23074945 eV
  | Electrostatic energy          :        -282.80456956 Ha       -7695.50388067 eV
  | Energy correction for multipole
  | error in Hartree potential    :          -0.00055055 Ha          -0.01498133 eV
  | Sum of eigenvalues per atom                           :       -1221.85757219 eV
  | Total energy (T->0) per atom                          :       -2038.04063630 eV  <-- do not rely on this value for anything but (periodic) metals
  | Electronic free energy per atom                       :       -2038.04288332 eV

  atomic forces [eV/Ang]:
  -----------------------
  atom #    1
   Hellmann-Feynman              :  0.153701E-10 -0.107932E-11 -0.158244E+02
   Ionic forces                  :  0.000000E+00  0.000000E+00  0.000000E+00
   Multipole                     : -0.304076E-13 -0.668396E-13 -0.592429E-01
   Pulay + GGA                   : -0.650826E-12  0.229930E-11  0.156089E+02
   ----------------------------------------------------------------
   Total forces(   1)            :  0.146889E-10  0.115313E-11 -0.274728E+00
  atom #    2
   Hellmann-Feynman              : -0.116465E-10 -0.246652E-10  0.158244E+02
   Ionic forces                  :  0.000000E+00  0.000000E+00  0.000000E+00
   Multipole                     : -0.117645E-12 -0.618296E-13  0.592429E-01
   Pulay + GGA                   :  0.522373E-11  0.430316E-11 -0.156089E+02
   ----------------------------------------------------------------
   Total forces(   2)            : -0.654040E-11 -0.204239E-10  0.274728E+00


  Self-consistency convergence accuracy:
  | Change of charge density      :  0.6218E-07
  | Change of sum of eigenvalues  : -0.5460E-05 eV
  | Change of total energy        : -0.7734E-12 eV
  | Change of forces              :  0.2582E-05 eV/A

  Writing Kohn-Sham eigenvalues.

  State    Occupation    Eigenvalue [Ha]    Eigenvalue [eV]
      1       2.00000         -19.412511         -528.24129
      2       2.00000         -19.412285         -528.23516
      3       2.00000          -1.746478          -47.52408
      4       2.00000          -1.151323          -31.32909
      5       2.00000          -0.959162          -26.10013
      6       2.00000          -0.959162          -26.10013
      7       2.00000          -0.941546          -25.62078
      8       0.50000          -0.639947          -17.41385
      9       0.50000          -0.639947          -17.41385
     10       0.00000          -0.178378           -4.85392
     11       0.00000          -0.160936           -4.37928
     12       0.00000          -0.115434           -3.14113
     13       0.00000          -0.115434           -3.14113
     14       0.00000          -0.059855           -1.62872

  Highest occupied state (VBM) at    -25.62077692 eV
  | Occupation number:      2.00000000

  Lowest unoccupied state (CBM) at   -17.41384538 eV
  | Occupation number:      0.50000016

  Overall HOMO-LUMO gap:      8.20693154 eV.

  Self-consistency cycle converged.

  End self-consistency iteration #    14       :  max(cpu_time)    wall_clock(cpu1)
  | Time for this iteration                    :        0.215 s           0.217 s
  | Charge density & force component update    :        0.099 s           0.099 s
  | Density mixing                             :        0.003 s           0.003 s
  | Hartree multipole update                   :        0.004 s           0.003 s
  | Hartree multipole summation                :        0.067 s           0.066 s
  | Integration                                :        0.042 s           0.042 s
  | Solution of K.-S. eqns.                    :        0.001 s           0.001 s
  | Total energy evaluation                    :        0.001 s           0.002 s
------------------------------------------------------------
  Writing cluster restart information to file restart
  ------------------------------------------------------------
   Computing monopole / dipole moments for complete molecule:
  | Total electronic charge [e]         :          0.150000000628958E+02
  | Total ionic charge [e]              :          0.160000000000000E+02
  | Total charge [e]                    :          0.999999937104155E+00
 * Warning: The system has a total charge of      0.99999994 .
 * The dipole moment depends on the choice of the origin.
  | Total dipole moment [eAng]          :          0.281267885968162E-14         0.304033693970807E-14         0.602499962105242E+00
  | Absolute dipole moment              :          0.602499962105242E+00 eAng              /                   0.289347963529668E+01 Debye  .
  Removing unitary transformations (pure translations, rotations) from forces on atoms.
  Atomic forces before filtering:
  | Net force on center of mass :   0.814845E-11 -0.192708E-10  0.504747E-11 eV/A
  | Net torque on center of mass:   0.120862E-10 -0.118914E-10  0.000000E+00 eV
  Atomic forces after filtering:
  | Net force on center of mass :   0.129808E-26  0.000000E+00  0.000000E+00 eV/A
  | Net torque on center of mass:   0.290842E-26 -0.145421E-26  0.000000E+00 eV

  Energy and forces in a compact form:
  | Total energy uncorrected      :         -0.407607677856310E+04 eV
  | Total energy corrected        :         -0.407608127260239E+04 eV  <-- do not rely on this value for anything but (periodic) metals
  | Electronic free energy        :         -0.407608576664168E+04 eV
  Total atomic forces (unitary forces cleaned) [eV/Ang]:
  |   1          0.194711309587837E-26          0.259615079450449E-26         -0.274728374666604E+00
  |   2         -0.649037698626122E-27         -0.259615079450449E-26          0.274728374666604E+00

  ------------------------------------ 
  Start decomposition of the XC Energy 
  ------------------------------------ 
  Hartree-Fock part   :          0.000000000 Ha              0.000000000 eV
  ------------------------------------ 
  X Energy            :        -15.952863439 Ha           -434.099500913 eV
  C Energy GGA        :         -0.503618124 Ha            -13.704146426 eV
  Total XC Energy     :        -16.456481563 Ha           -447.803647339 eV
  LDA X and C from self-consistent density 
  X Energy LDA        :        -14.468620004 Ha           -393.711182102 eV
  C Energy LDA        :         -1.061785386 Ha            -28.892650386 eV
  ------------------------------------ 
  End decomposition of the XC Energy 
  ------------------------------------ 

------------------------------------------------------------------------------
  Final output of selected total energy values:

  The following output summarizes some interesting total energy values
  at the end of a run (AFTER all relaxation, molecular dynamics, etc.).

  | Total energy of the DFT / Hartree-Fock s.c.f. calculation      :          -4076.076778563 eV
  | Final zero-broadening corrected energy (caution - metals only) :          -4076.081272602 eV
  | For reference only, the value of 1 Hartree used in FHI-aims is :             27.211384500 eV

  Before relying on these values, please be sure to understand exactly which
  total energy value is referred to by a given number. Different objects may
  all carry the same name 'total energy'. Definitions:

  Total energy of the DFT / Hartree-Fock s.c.f. calculation:
  | Note that this energy does not include ANY quantities calculated after the
  | s.c.f. cycle, in particular not ANY RPA, MP2, etc. many-body perturbation terms.

  Final zero-broadening corrected energy:
  | For metallic systems only, a broadening of the occupation numbers at the Fermi
  | level can be extrapolated back to zero broadening by an electron-gas inspired
  | formula. For all systems that are not real metals, this value can be
  | meaningless and should be avoided.

------------------------------------------------------------------------------
  Methods described in the following list of references were used in this FHI-aims run.
  If you publish the results, please make sure to cite these reference if they apply.
  FHI-aims is an academic code, and for our developers (often, Ph.D. students
  and postdocs), scientific credit in the community is essential.
  Thank you for helping us!

  For any use of FHI-aims, please cite:

    Volker Blum, Ralf Gehrke, Felix Hanke, Paula Havu, Ville Havu,
    Xinguo Ren, Karsten Reuter, and Matthias Scheffler
    'Ab initio molecular simulations with numeric atom-centered orbitals'
    Computer Physics Communications 180, 2175-2196 (2009)
    http://dx.doi.org/10.1016/j.cpc.2009.06.022


  For the real-space grid partitioning and parallelization used in this calculation, please cite:

    Ville Havu, Volker Blum, Paula Havu, and Matthias Scheffler,
    'Efficient O(N) integration for all-electron electronic structure calculation'
    'using numerically tabulated basis functions'
    Journal of Computational Physics 228, 8367-8379 (2009).
    http://dx.doi.org/10.1016/j.jcp.2009.08.008

  Of course, there are many other important community references, e.g., those cited in the
  above references. Our list is limited to references that describe implementations in the
  FHI-aims code. The reason is purely practical (length of this list) - please credit others as well.

------------------------------------------------------------
          Leaving FHI-aims.
          Date     :  20190722, Time     :  144536.680

          Computational steps:
          | Number of self-consistency cycles          :           14

          Detailed time accounting                     :  max(cpu_time)    wall_clock(cpu1)
          | Total time                                 :        2.075 s           2.092 s
          | Preparation time                           :        0.156 s           0.159 s
          | Grid partitioning                          :        0.022 s           0.023 s
          | Preloading free-atom quantities on grid    :        0.018 s           0.018 s
          | Free-atom superposition energy             :        0.009 s           0.008 s
          | Total time for integrations                :        0.690 s           0.687 s
          | Total time for solution of K.-S. equations :        0.023 s           0.025 s
          | Total time for density & force components  :        0.521 s           0.513 s
          | Total time for mixing                      :        0.035 s           0.037 s
          | Total time for Hartree multipole update    :        0.063 s           0.052 s
          | Total time for Hartree multipole sum       :        0.463 s           0.456 s
          | Total time for total energy evaluation     :        0.008 s           0.015 s

          Have a nice day.
------------------------------------------------------------
