  MPI-parallelism will be employed.
------------------------------------------------------------
          Invoking FHI-aims ...
          Version 160328_3
          Compiled on 2019/06/10 at 14:55:49 on host taito-login3.csc.fi.

          When using FHI-aims, please cite the following reference:

          Volker Blum, Ralf Gehrke, Felix Hanke, Paula Havu,
          Ville Havu, Xinguo Ren, Karsten Reuter, and Matthias Scheffler,
          'Ab Initio Molecular Simulations with Numeric Atom-Centered Orbitals',
          Computer Physics Communications 180, 2175-2196 (2009)

          For any questions about FHI-aims, please visit the aimsclub website
          with its forums and wiki. Contributions to both the forums and the
          wiki are warmly encouraged - they are for you, and everyone is welcome there.

------------------------------------------------------------

  Date     :  20190722, Time     :  142630.529
  Time zero on CPU 1             :   0.869860000000000E-01  s.
  Internal wall clock time zero  :           333037590.529  s.

  Using        4 parallel tasks.
  Task        0 on host c627 reporting.
  Task        1 on host c627 reporting.
  Task        2 on host c627 reporting.
  Task        3 on host c627 reporting.

  Performing system and environment tests:
  | Environment variable OMP_NUM_THREADS correctly set to 1.
  | Maximum stacksize for task 0: unlimited
  | Maximum stacksize for task 1: unlimited
  | Maximum stacksize for task 2: unlimited
  | Maximum stacksize for task 3: unlimited
  | Current stacksize for task 0: 1024 [Mb]
  | Current stacksize for task 1: 1024 [Mb]
  | Current stacksize for task 2: 1024 [Mb]
  | Current stacksize for task 3: 1024 [Mb]
  | Checking for scalapack...
  | No scalapack compiled in.

  Obtaining array dimensions for all initial allocations:
  
  -----------------------------------------------------------------------
  Parsing control.in (first pass over file, find array dimensions only).
  The contents of control.in will be repeated verbatim below
  unless switched off by setting 'verbatim_writeout .false.' .
  in the first line of control.in .
  -----------------------------------------------------------------------
  
    #  Physical model settings
    #
  
    xc                            pbe
    charge                        1.0
    relativistic                  none
  #  default_initial_moment        0.0
    spin                          none
  #  vdw_correction_hirshfeld
  
    #  SCF convergence settings
    #
  
    sc_accuracy_rho               1E-4
    sc_accuracy_eev               1E-2
    sc_accuracy_etot              1E-8
    sc_iter_limit                 100
  
    #  Occupation settings
    #
  
    restart                       restart
  #  force_occupation_projector      6 1 1.0 6 7 # ion 3
  
    #  Relaxation
    #
  
    relax_geometry                bfgs    1.e-4
  
  
  ################################################################################
  #
  #  FHI-aims code project
  #  VB, Fritz-Haber Institut, 2007
  #
  #  Suggested "safe" defaults for O atom (to be pasted into control.in file)
  #
  ################################################################################
    species        O
  #     global species definitions
      nucleus             8
      mass                15.9994
  #
      l_hartree           8
  #
      cut_pot             4.0  2.0  1.0
      basis_dep_cutoff    0.d0
  #
      radial_base         36 7.0
      radial_multiplier   2
       angular_grids specified
        division   0.4087  110
        division   0.5181  194
        division   0.6184  302
        division   0.7315  434
        division   0.7934  590
  #      division   0.9656  770
  #      division   1.4041  974
  #      outer_grid 974
        outer_grid 590
  ################################################################################
  #
  #  Definition of "minimal" basis
  #
  ################################################################################
  #     valence basis states
      valence      2  s   2.
      valence      2  p   4.
  #     ion occupancy
      ion_occ      2  s   1.
      ion_occ      2  p   3.
  ################################################################################
  #
  #  Suggested additional basis functions. For production calculations,
  #  uncomment them one after another (the most important basis functions are
  #  listed first).
  #
  #  Constructed for dimers: 1.0 A, 1.208 A, 1.5 A, 2.0 A, 3.0 A
  #
  ################################################################################
  #  "First tier" - improvements: -699.05 meV to -159.38 meV
       hydro 2 p 1.8
       hydro 3 d 7.6
       hydro 3 s 6.4
  #  "Second tier" - improvements: -49.91 meV to -5.39 meV
       hydro 4 f 11.6
       hydro 3 p 6.2
       hydro 3 d 5.6
       hydro 5 g 17.6
       hydro 1 s 0.75
  #  "Third tier" - improvements: -2.83 meV to -0.50 meV
  #     ionic 2 p auto
  #     hydro 4 f 10.8
  #     hydro 4 d 4.7
  #     hydro 2 s 6.8
  #  "Fourth tier" - improvements: -0.40 meV to -0.12 meV
  #     hydro 3 p 5
  #     hydro 3 s 3.3
  #     hydro 5 g 15.6
  #     hydro 4 f 17.6
  #     hydro 4 d 14
  # Further basis functions - -0.08 meV and below
  #     hydro 3 s 2.1
  #     hydro 4 d 11.6
  #     hydro 3 p 16
  #     hydro 2 s 17.2
  
  -----------------------------------------------------------------------
  Completed first pass over input file control.in .
  -----------------------------------------------------------------------
  
  
  -----------------------------------------------------------------------
  Parsing geometry.in (first pass over file, find array dimensions only).
  The contents of geometry.in will be repeated verbatim below
  unless switched off by setting 'verbatim_writeout .false.' .
  in the first line of geometry.in .
  -----------------------------------------------------------------------
  
  atom 0.0 0.0 0.0 O
  atom 0.0 0.0 1.2075 O
  
  -----------------------------------------------------------------------
  Completed first pass over input file geometry.in .
  -----------------------------------------------------------------------
  

  Basic array size parameters:
  | Number of species                 :        1
  | Number of atoms                   :        2
  | Max. basis fn. angular momentum   :        4
  | Max. atomic/ionic basis occupied n:        2
  | Max. number of basis fn. types    :        2
  | Max. radial fns per species/type  :        8
  | Max. logarithmic grid size        :     1301
  | Max. radial integration grid size :       73
  | Max. angular integration grid size:      590
  | Max. angular grid division number :        8
  | Radial grid for Hartree potential :     1301
  | Number of spin channels           :        1

------------------------------------------------------------
          Reading file control.in.
------------------------------------------------------------
  XC: Using PBE gradient-corrected functionals.
  Charged system requested: Charge =   0.100000E+01.
  Non-relativistic treatment of kinetic energy.
  Spin treatment: No spin polarisation.
  Convergence accuracy of self-consistent charge density:  0.1000E-03
  Convergence accuracy of sum of eigenvalues:  0.1000E-01
  Convergence accuracy of total energy:  0.1000E-07
  Maximum number of s.-c. iterations  :   100
  Restart file specified as : restart
  | Reading information from existing file.
  Geometry relaxation: Modified BFGS - TRM (trust radius method, i.e., trusted quadratic extrapolation).
  Convergence accuracy for geometry relaxation: Maximum force <   0.100000E-03 eV/A.
 
  Reading configuration options for species O                   .
  | Found nuclear charge :   8.0000
  | Found atomic mass :    15.9994000000000      amu
  | Found l_max for Hartree potential  :   8
  | Found cutoff potl. onset [A], width [A], scale factor :    4.00000    2.00000    1.00000
  | Threshold for basis-dependent cutoff potential is   0.000000E+00
  | Found data for basic radial integration grid :    36 points, outermost radius =    7.000 A
  | Found multiplier for basic radial grid :   2
  | Found angular grid specification: user-specified.
  | Specified grid contains     6 separate shells.
  | Check grid settings after all constraints further below.
  | Found free-atom valence shell :  2 s   2.000
  | Found free-atom valence shell :  2 p   4.000
  | No ionic wave fns used. Skipping ion_occ.
  | No ionic wave fns used. Skipping ion_occ.
  | Found hydrogenic basis function :  2 p   1.800
  | Found hydrogenic basis function :  3 d   7.600
  | Found hydrogenic basis function :  3 s   6.400
  | Found hydrogenic basis function :  4 f  11.600
  | Found hydrogenic basis function :  3 p   6.200
  | Found hydrogenic basis function :  3 d   5.600
  | Found hydrogenic basis function :  5 g  17.600
  | Found hydrogenic basis function :  1 s   0.750
  Species O                   : Missing cutoff potential type.
  Defaulting to exp(1/x)/(1-x)^2 type cutoff potential.
  Species O : No 'logarithmic' tag. Using default grid for free atom:
  | Default logarithmic grid data [bohr] : 0.1000E-03 0.1000E+03 0.1012E+01
  Species O : On-site basis accuracy parameter (for Gram-Schmidt orthonormalisation) not specified.
  Using default value basis_acc =  0.1000000E-03.
  Species O                   : Using default innermost maximum threshold i_radial=  2 for radial functions.
  Species O                   : Default cutoff onset for free atom density etc. : 0.40000000E+01 AA.
  Species O                   : Basic radial grid will be enhanced according to radial_multiplier =   2, to contain    73 grid points.
 
  Finished reading input file 'control.in'. Consistency checks are next.
 
  Target number of points in a grid batch is not set. Defaulting to  100
  Method for grid partitioning is not set. Defaulting to parallel hash+maxmin partitioning.
  Batch size limit is not set. Defaulting to    200
  By default, will store active basis functions for each batch.
  If in need of memory, prune_basis_once .false. can be used to disable this option.
  communication_type for Hartree potential was not specified.
  Defaulting to calc_hartree .
  Defaulting to Pulay charge density mixer.
  Pulay mixer: Number of relevant iterations not set.
  Defaulting to    8 iterations.
  Pulay mixer: Number of initial linear mixing iterations not set.
  Defaulting to    0 iterations.
  Work space size for distributed Hartree potential not set.
  Defaulting to   0.200000E+03 MB.
  Mixing parameter for charge density mixing has not been set.
  Using default: charge_mix_param =     0.2000.
  Algorithm-dependent basis array size parameters:
  | n_max_pulay                         :        8
  No maximum number of relaxation steps, defaulting to     1000
  Default initial Hessian is Lindh matrix (thres = 15.00) plus  0.200000E+01 eV/A^2 times unity.
  No maximum energy tolerance for TRM/BFGS moves, defaulting to   0.200000E-03
  No harmonic length scale. Defaulting to   0.250000E-01 A.
  No trust radius initializer. Defaulting to   0.200000E+00 A.
  Force calculation: scf convergence accuracy of forces not set.
  Required force accuracy for relaxation overrides required scf force convergence accuracy.
  Defaulting to  0.2000E-04 eV/A.
  Handling of forces: Unphysical translation and rotation will be removed from forces.
  No accuracy limit for integral partition fn. given. Defaulting to  0.1000E-14.
  No threshold value for u(r) in integrations given. Defaulting to  0.1000E-05.
  No occupation type (smearing scheme) given. Defaulting to Gaussian broadening, width =  0.1000E-01 eV.
  No accuracy for occupation numbers given. Defaulting to  0.1000E-07.
  No threshold value for occupation numbers given. Defaulting to  0.0000E+00.
  No accuracy for fermi level given. Defaulting to  0.1000E-19.
  Maximum # of iterations to find E_F not set. Defaulting to  200.
  Preferred method for the eigenvalue solver ('KS_method') not specified in 'control.in'.
  Calling blacs routine to test compilation state
  The best choice would be 'elpa', but your version of FHI-aims is compiled without scalapack support.
  Defaulting to 'lapack_fast' instead (serial solution, time will not improve with more CPUs).
  Will not use alltoall communication since running on < 1024 CPUs.
  Threshold for basis singularities not set.
  Default threshold for basis singularities:  0.1000E-04
  partition_type (choice of integration weights) for integrals was not specified.
  | Using a version of the partition function of Stratmann and coworkers ('stratmann_smoother').
  | At each grid point, the set of atoms used to build the partition table is smoothly restricted to
  | only those atoms whose free-atom density would be non-zero at that grid point.
  Partitioning for Hartree potential was not defined. Using partition_type for integrals.
  | Adjusted default value of keyword multip_moments_threshold to:       0.10000000E-11
  | This value may affect high angular momentum components of the Hartree potential in periodic systems.
  No q(lm)/r^(l+1) cutoff set for long-range Hartree potential.
  | Using default value of  0.100000E-09 .
  | Verify using the multipole_threshold keyword.
  Defaulting to new monopole extrapolation.
  Density update method: automatic selection selected.
  Geometry relaxation: A file "geometry.in.next_step" is written out by default after each step.
  | This file contains the geometry of the current relaxation step as well as
  | the current Hessian matrix needed to restart the relaxation algorithm.
  | If you do not want part or all of this information, use the keywords
  | "write_restart_geometry" or "hessian_to_restart_geometry" to switch the output off.
------------------------------------------------------------


------------------------------------------------------------
          Reading geometry description geometry.in.
------------------------------------------------------------
 * Warning: Initial charge and total charge of the system are inconsistent.
 * Selected charge in control.in:     1.0000* Sum of initial charges in geometry.in:     0.0000
  Input structure read successfully.
  The structure contains        2 atoms,  and a total of         15.000 electrons.

  Input geometry:
  | No unit cell requested.
  | Atomic structure:
  |       Atom                x [A]            y [A]            z [A]
  |    1: Species O              0.000000         0.000000         0.000000
  |    2: Species O              0.000000         0.000000         1.207500
  |

  | The smallest distance between any two atoms is         1.20750000 AA.
  |
  | The first atom of this pair is atom number                      1 .
  | The second atom of this pair is atom number                     2 .

  Number of empty states per atom not set in control.in - providing a guess from actual geometry.
  | Total number of empty states used during s.c.f. cycle:        6
  If you use a very high smearing, use empty_states (per atom!) in control.in to increase this value.

  Structure-dependent array size parameters: 
  | Maximum number of distinct radial functions  :       11
  | Maximum number of basis functions            :       78
  | Number of Kohn-Sham states (occupied + empty):       14
------------------------------------------------------------

------------------------------------------------------------
          Preparing all fixed parts of the calculation.
------------------------------------------------------------
  Determining machine precision:
    2.225073858507201E-308
  Setting up grids for atomic and cluster calculations.

  Creating wave function, potential, and density for free atoms.

  Species: O

  List of occupied orbitals and eigenvalues:
    n    l              occ      energy [Ha]    energy [eV]
    1    0           2.0000       -18.898576      -514.2564
    2    0           2.0000        -0.878795       -23.9132
    2    1           4.0000        -0.332075        -9.0362

  Creating fixed part of basis set: Ionic, confined, hydrogenic.
 
  O                    hydrogenic:
 
  List of hydrogenic basis orbitals: 
    n    l      effective z      eigenvalue [eV]  inner max. [A]     outer max. [A]     outer radius [A]   
    2    1         1.800000       -11.0118           1.178562           1.178562           5.432602
    3    2         7.600000       -87.3183           0.624125           0.624125           4.634338
    3    0         6.400000       -61.9210           0.061167           1.081902           5.110480
    4    3        11.600000      -114.4239           0.731631           0.731631           4.522403
    3    1         6.200000       -58.1114           0.255680           1.030270           5.110480
    3    2         5.600000       -47.4083           0.847233           0.847233           5.173339
    5    4        17.600000      -168.5800           0.749740           0.749740           4.051222
    1    0         0.750000        -7.6499           0.705284           0.705284           5.366593
 

  Adding cutoff potential to free-atom effective potential.
  Creating atomic-like basis functions for current effective potential.

  Species O                   :

  List of atomic basis orbitals and eigenvalues:
    n    l      energy [Ha]    energy [eV]    outer radius [A]
    1    0       -18.898576      -514.2564       1.415765
    2    0        -0.878795       -23.9132       5.048385
    2    1        -0.332075        -9.0362       5.301386

  Assembling full basis from fixed parts.
  | Species O :   atomic orbital   1 s accepted.
  | Species O :   atomic orbital   2 s accepted.
  | Species O :    hydro orbital   3 s accepted.
  | Species O :    hydro orbital   1 s accepted.
  | Species O :   atomic orbital   2 p accepted.
  | Species O :    hydro orbital   2 p accepted.
  | Species O :    hydro orbital   3 p accepted.
  | Species O :    hydro orbital   3 d accepted.
  | Species O :    hydro orbital   3 d accepted.
  | Species O :    hydro orbital   4 f accepted.
  | Species O :    hydro orbital   5 g accepted.
 
  Basis size parameters after reduction:
  | Total number of radial functions:       11
  | Total number of basis functions :       78
 
  Testing on-site integration grid accuracy.
  |  Species  Function  <phi|h_atom|phi> (log., in eV)  <phi|h_atom|phi> (rad., in eV)
           1        1               -514.2564144315               -514.2564099626
           1        2                -23.9132357102                -23.9132356433
           1        3                 17.5398579759                 17.5398338425
           1        4                 14.5207278950                 14.5207740449
           1        5                 -9.0362392718                 -9.0362394845
           1        6                  7.9056275927                  7.9056237490
           1        7                 33.4201658992                 33.4201612015
           1        8                 45.8231952720                 45.8231953152
           1        9                 52.1937595491                 52.1937593440
           1       10                 85.4062894308                 85.4062894578
           1       11                142.0975701139                142.0975701391

  Preparing densities etc. for the partition functions (integrals / Hartree potential).

  Preparations completed.
  max(cpu_time)          :      0.170 s.
  Wall clock time (cpu1) :      0.559 s.
------------------------------------------------------------

------------------------------------------------------------
          Begin self-consistency loop: Initialization.

          Date     :  20190722, Time     :  142631.210
------------------------------------------------------------

  Initializing index lists of integration centers etc. from given atomic structure:
  | Number of centers in hartree potential         :         2
  | Number of centers in hartree multipole         :         2
  | Number of centers in electron density summation:         2
  | Number of centers in basis integrals           :         2
  | Number of centers in integrals                 :         2
  | Number of centers in hamiltonian               :         2
  Initializing relaxation algorithms.
  Partitioning the integration grid into batches with parallel hashing+maxmin method.
  | Number of batches:      742
  | Maximal batch size:     112
  | Minimal batch size:      49
  | Average batch size:      71.779
  | Standard deviation of batch sizes:      21.702

  Integration load balanced across     4 MPI tasks.
  Work distribution over tasks is as follows:
  Task     0 has      13280 integration points.
  Task     1 has      13300 integration points.
  Task     2 has      13300 integration points.
  Task     3 has      13380 integration points.
  Initializing partition tables, free-atom densities, potentials, etc. across the integration grid (initialize_grid_storage).
  | initialize_grid_storage: Actual outermost partition radius vs. multipole_radius_free
  | (-- VB: in principle, multipole_radius_free should be larger, hence this output)
  | Species        1: Confinement radius =              6.000000000000000 AA, multipole_radius_free =              6.064445521808699 AA.
  | Species        1: outer_partition_radius set to              6.064445521808699 AA .
  | Original list of interatomic distances with           2 x          2 entries is created.
  | Net number of integration points:    53260
  | of which are non-zero points    :    50204
  Obtaining max. number of non-zero basis functions in each batch (get_n_compute_maxes).
  | Maximal number of non-zero basis functions:       78 in task     0
  | Maximal number of non-zero basis functions:       78 in task     1
  | Maximal number of non-zero basis functions:       78 in task     2
  | Maximal number of non-zero basis functions:       78 in task     3
  Selecting the method for density update.
  Loop over occupied states selected for charge density update.
  Integrating Hamiltonian matrix: batch-based integration.
  Time summed over all CPUs for integration: real work        0.477 s, elapsed        0.483 s
  Integrating overlap matrix.
  Time summed over all CPUs for integration: real work        0.066 s, elapsed        0.067 s

  Reading cluster restart information from file restart
  Writing Kohn-Sham eigenvalues.

  State    Occupation    Eigenvalue [Ha]    Eigenvalue [eV]
      1       2.00000         -19.412611         -528.24401
      2       2.00000         -19.412392         -528.23807
      3       2.00000          -1.743894          -47.45377
      4       2.00000          -1.151969          -31.34668
      5       2.00000          -0.957888          -26.06547
      6       2.00000          -0.957888          -26.06547
      7       2.00000          -0.941161          -25.61031
      8       0.50000          -0.640780          -17.43651
      9       0.50000          -0.640780          -17.43651
     10       0.00000          -0.181161           -4.92964
     11       0.00000          -0.160859           -4.37719
     12       0.00000          -0.115282           -3.13698
     13       0.00000           0.000000            0.00000
     14       0.00000           0.000000            0.00000

  Highest occupied state (VBM) at    -25.61030735 eV
  | Occupation number:      2.00000000

  Lowest unoccupied state (CBM) at   -17.43651299 eV
  | Occupation number:      0.50000015

  Overall HOMO-LUMO gap:      8.17379436 eV.
  Calculating total energy contributions from superposition of free atom densities.

  Total energy components:
  | Sum of eigenvalues            :         -89.79638919 Ha       -2443.48407285 eV
  | XC energy correction          :         -16.76402082 Ha        -456.17221629 eV
  | XC potential correction       :          21.55039927 Ha         586.41620056 eV
  | Free-atom electrostatic energy:         -71.89305466 Ha       -1956.30955312 eV
  | Hartree energy correction     :           0.00000000 Ha           0.00000000 eV
  | Entropy correction            :          -0.00020734 Ha          -0.00564190 eV
  | ---------------------------
  | Total energy                  :        -156.90306540 Ha       -4269.54964171 eV
  | Total energy, T -> 0          :        -156.90327273 Ha       -4269.55528360 eV  <-- do not rely on this value for anything but (periodic) metals
  | Electronic free energy        :        -156.90348007 Ha       -4269.56092550 eV

  Derived energy quantities:
  | Kinetic energy                :         143.05749516 Ha        3892.79250639 eV
  | Electrostatic energy          :        -283.19653974 Ha       -7706.16993181 eV
  | Energy correction for multipole
  | error in Hartree potential    :           0.00000000 Ha           0.00000000 eV
  | Sum of eigenvalues per atom                           :       -1221.74203643 eV
  | Total energy (T->0) per atom                          :       -2134.77764180 eV  <-- do not rely on this value for anything but (periodic) metals
  | Electronic free energy per atom                       :       -2134.78046275 eV
  Initialize hartree_potential_storage
  Max. number of atoms included in rho_multipole:            2

  End scf initialization - timings             :  max(cpu_time)    wall_clock(cpu1)
  | Time for scf. initialization               :        0.149 s           0.261 s
  | Boundary condition initialization          :        0.001 s           0.003 s
  | Relaxation initialization                  :        0.003 s           0.009 s
  | Integration                                :        0.063 s           0.141 s
  | Solution of K.-S. eqns.                    :        0.021 s           0.022 s
  | Grid partitioning                          :        0.025 s           0.038 s
  | Preloading free-atom quantities on grid    :        0.017 s           0.018 s
  | Free-atom superposition energy             :        0.010 s           0.009 s
  | Total energy evaluation                    :        0.001 s           0.002 s
------------------------------------------------------------

------------------------------------------------------------
          Initial SCF-cycle to compute last known
          density from restart information.

  Date     :  20190722, Time     :  142631.473
------------------------------------------------------------
  Evaluating new KS density.
  Integration grid: deviation in total charge (<rho> - N_e) =  -9.936789E-02

  Evaluating partitioned Hartree potential by multipole expansion.
  | Analytical far-field extrapolation by fixed multipoles:
  | Hartree multipole sum: apparent total charge =   0.109937E+01
  Summing up the Hartree potential.
  Time summed over all CPUs for potential: real work        0.107 s, elapsed        0.108 s
  | RMS charge density error from multipole expansion :   0.466833E-03

  Integrating Hamiltonian matrix: batch-based integration.
  Time summed over all CPUs for integration: real work        0.166 s, elapsed        0.169 s

  Updating Kohn-Sham eigenvalues, eigenvectors, occupation numbers, and Fermi level.
  Solving generalized eigenproblem
  Updating Kohn-Sham eigenvalues and eigenfunctions.
  Transforming overlap matrix and checking for singularities.
  Overlap matrix is nonsingular:
  | Lowest eigenvalue:  0.279359E-03
  Solving real generalised eigenvalue problem by standard LAPACK (fast)
  Determining occupation numbers for Kohn-Sham eigenstates.
  | Chemical potential (Fermi level) in eV                 : -.19567359E+02
  | Error in electron count due to remaining E_F inaccuracy: 0.52402527E-12
  | Maximum occupation number of highest empty state:  0.00E+00

  Highest occupied state (VBM) at    -26.47522058 eV
  | Occupation number:      2.00000000

  Lowest unoccupied state (CBM) at   -19.56258976 eV
  | Occupation number:      0.50000735

  Overall HOMO-LUMO gap:      6.91263082 eV.

  Total energy components:
  | Sum of eigenvalues            :         -90.36608453 Ha       -2458.98627201 eV
  | XC energy correction          :         -16.32159631 Ha        -444.13323273 eV
  | XC potential correction       :          20.97003351 Ha         570.62364472 eV
  | Free-atom electrostatic energy:         -71.89305466 Ha       -1956.30955312 eV
  | Hartree energy correction     :           7.82372450 Ha         212.89437561 eV
  | Entropy correction            :          -0.00016515 Ha          -0.00449404 eV
  | ---------------------------
  | Total energy                  :        -149.78697749 Ha       -4075.91103753 eV
  | Total energy, T -> 0          :        -149.78714264 Ha       -4075.91553157 eV  <-- do not rely on this value for anything but (periodic) metals
  | Electronic free energy        :        -149.78730779 Ha       -4075.92002561 eV

  Derived energy quantities:
  | Kinetic energy                :         149.01246669 Ha        4054.83552630 eV
  | Electrostatic energy          :        -282.47784787 Ha       -7686.61333110 eV
  | Energy correction for multipole
  | error in Hartree potential    :          -0.00043186 Ha          -0.01175147 eV
  | Sum of eigenvalues per atom                           :       -1229.49313601 eV
  | Total energy (T->0) per atom                          :       -2037.95776578 eV  <-- do not rely on this value for anything but (periodic) metals
  | Electronic free energy per atom                       :       -2037.96001280 eV

  Self-consistency convergence accuracy:
  | Change of charge density      :  0.1734E+00
  | Change of sum of eigenvalues  : -0.1550E+02 eV
  | Change of total energy        :  0.1936E+03 eV

  End self-consistency iteration #     0       :  max(cpu_time)    wall_clock(cpu1)
  | Time for this iteration                    :        0.122 s           0.235 s
  | Charge density update                      :        0.033 s           0.041 s
  | Density mixing                             :        0.001 s           0.001 s
  | Hartree multipole update                   :        0.006 s           0.006 s
  | Hartree multipole summation                :        0.027 s           0.030 s
  | Integration                                :        0.043 s           0.043 s
  | Solution of K.-S. eqns.                    :        0.012 s           0.113 s
  | Total energy evaluation                    :        0.000 s           0.001 s
------------------------------------------------------------

------------------------------------------------------------
          Begin self-consistency iteration #    1

  Date     :  20190722, Time     :  142631.710
------------------------------------------------------------
  Evaluating new KS density.
  Integration grid: deviation in total charge (<rho> - N_e) =   5.293543E-13
  Pulay mixing of updated and previous charge densities.

  Evaluating partitioned Hartree potential by multipole expansion.
  | Analytical far-field extrapolation by fixed multipoles:
  | Hartree multipole sum: apparent total charge =   0.107949E+01
  Summing up the Hartree potential.
  Time summed over all CPUs for potential: real work        0.101 s, elapsed        0.101 s
  | RMS charge density error from multipole expansion :   0.450805E-03

  Integrating Hamiltonian matrix: batch-based integration.
  Time summed over all CPUs for integration: real work        0.166 s, elapsed        0.168 s

  Updating Kohn-Sham eigenvalues, eigenvectors, occupation numbers, and Fermi level.
  Solving generalized eigenproblem
  Updating Kohn-Sham eigenvalues and eigenfunctions.
  Solving real generalised eigenvalue problem by standard LAPACK (fast)
  Determining occupation numbers for Kohn-Sham eigenstates.
  | Chemical potential (Fermi level) in eV                 : -.19191113E+02
  | Error in electron count due to remaining E_F inaccuracy: -.69551120E-09
  | Maximum occupation number of highest empty state:  0.00E+00

  Writing Kohn-Sham eigenvalues.

  State    Occupation    Eigenvalue [Ha]    Eigenvalue [eV]
      1       2.00000         -19.454668         -529.38844
      2       2.00000         -19.454589         -529.38629
      3       2.00000          -1.713934          -46.63852
      4       2.00000          -1.208396          -32.88214
      5       2.00000          -0.962041          -26.17847
      6       2.00000          -0.961461          -26.16268
      7       2.00000          -0.961461          -26.16268
      8       0.50006          -0.705085          -19.18634
      9       0.49994          -0.705085          -19.18634
     10       0.00000          -0.331227           -9.01315
     11       0.00000          -0.181603           -4.94168
     12       0.00000          -0.132633           -3.60913
     13       0.00000          -0.132633           -3.60913
     14       0.00000          -0.107184           -2.91664

  Highest occupied state (VBM) at    -26.16268290 eV
  | Occupation number:      2.00000000

  Lowest unoccupied state (CBM) at   -19.18634455 eV
  | Occupation number:      0.50006490

  Overall HOMO-LUMO gap:      6.97633835 eV.

  Total energy components:
  | Sum of eigenvalues            :         -90.13818452 Ha       -2452.78479700 eV
  | XC energy correction          :         -16.33717122 Ha        -444.55704764 eV
  | XC potential correction       :          20.99052395 Ha         571.18121796 eV
  | Free-atom electrostatic energy:         -71.89305466 Ha       -1956.30955312 eV
  | Hartree energy correction     :           7.59356483 Ha         206.63141226 eV
  | Entropy correction            :          -0.00016515 Ha          -0.00449404 eV
  | ---------------------------
  | Total energy                  :        -149.78432161 Ha       -4075.83876753 eV
  | Total energy, T -> 0          :        -149.78448677 Ha       -4075.84326157 eV  <-- do not rely on this value for anything but (periodic) metals
  | Electronic free energy        :        -149.78465192 Ha       -4075.84775561 eV

  Derived energy quantities:
  | Kinetic energy                :         149.09294560 Ha        4057.02546886 eV
  | Electrostatic energy          :        -282.54009599 Ha       -7688.30718875 eV
  | Energy correction for multipole
  | error in Hartree potential    :          -0.00042542 Ha          -0.01157630 eV
  | Sum of eigenvalues per atom                           :       -1226.39239850 eV
  | Total energy (T->0) per atom                          :       -2037.92163079 eV  <-- do not rely on this value for anything but (periodic) metals
  | Electronic free energy per atom                       :       -2037.92387781 eV

  Self-consistency convergence accuracy:
  | Change of charge density      :  0.6182E-01
  | Change of sum of eigenvalues  :  0.6201E+01 eV
  | Change of total energy        :  0.7227E-01 eV

  End self-consistency iteration #     1       :  max(cpu_time)    wall_clock(cpu1)
  | Time for this iteration                    :        0.110 s           0.111 s
  | Charge density update                      :        0.030 s           0.030 s
  | Density mixing                             :        0.001 s           0.003 s
  | Hartree multipole update                   :        0.004 s           0.004 s
  | Hartree multipole summation                :        0.027 s           0.027 s
  | Integration                                :        0.043 s           0.042 s
  | Solution of K.-S. eqns.                    :        0.001 s           0.002 s
  | Total energy evaluation                    :        0.001 s           0.002 s
------------------------------------------------------------

------------------------------------------------------------
          Begin self-consistency iteration #    2

  Date     :  20190722, Time     :  142631.823
------------------------------------------------------------
  Evaluating new KS density.
  Integration grid: deviation in total charge (<rho> - N_e) =  -6.954899E-10
  Pulay mixing of updated and previous charge densities.

  Evaluating partitioned Hartree potential by multipole expansion.
  | Analytical far-field extrapolation by fixed multipoles:
  | Hartree multipole sum: apparent total charge =   0.103243E+01
  Summing up the Hartree potential.
  Time summed over all CPUs for potential: real work        0.100 s, elapsed        0.101 s
  | RMS charge density error from multipole expansion :   0.423975E-03

  Integrating Hamiltonian matrix: batch-based integration.
  Time summed over all CPUs for integration: real work        0.166 s, elapsed        0.168 s

  Updating Kohn-Sham eigenvalues, eigenvectors, occupation numbers, and Fermi level.
  Solving generalized eigenproblem
  Updating Kohn-Sham eigenvalues and eigenfunctions.
  Solving real generalised eigenvalue problem by standard LAPACK (fast)
  Determining occupation numbers for Kohn-Sham eigenstates.
  | Chemical potential (Fermi level) in eV                 : -.18386676E+02
  | Error in electron count due to remaining E_F inaccuracy: 0.47926108E-10
  | Maximum occupation number of highest empty state:  0.00E+00

  Highest occupied state (VBM) at    -25.28330685 eV
  | Occupation number:      2.00000000

  Lowest unoccupied state (CBM) at   -18.38192745 eV
  | Occupation number:      0.50182975

  Overall HOMO-LUMO gap:      6.90137940 eV.

  Total energy components:
  | Sum of eigenvalues            :         -89.66052714 Ha       -2439.78707853 eV
  | XC energy correction          :         -16.36793988 Ha        -445.39430544 eV
  | XC potential correction       :          21.03102513 Ha         572.28331122 eV
  | Free-atom electrostatic energy:         -71.89305466 Ha       -1956.30955312 eV
  | Hartree energy correction     :           7.10877705 Ha         193.43966561 eV
  | Entropy correction            :          -0.00016515 Ha          -0.00449402 eV
  | ---------------------------
  | Total energy                  :        -149.78171950 Ha       -4075.76796025 eV
  | Total energy, T -> 0          :        -149.78188465 Ha       -4075.77245427 eV  <-- do not rely on this value for anything but (periodic) metals
  | Electronic free energy        :        -149.78204980 Ha       -4075.77694829 eV

  Derived energy quantities:
  | Kinetic energy                :         149.22076348 Ha        4060.50357036 eV
  | Electrostatic energy          :        -282.63454310 Ha       -7690.87722518 eV
  | Energy correction for multipole
  | error in Hartree potential    :          -0.00039427 Ha          -0.01072874 eV
  | Sum of eigenvalues per atom                           :       -1219.89353926 eV
  | Total energy (T->0) per atom                          :       -2037.88622714 eV  <-- do not rely on this value for anything but (periodic) metals
  | Electronic free energy per atom                       :       -2037.88847415 eV

  Self-consistency convergence accuracy:
  | Change of charge density      :  0.4203E-01
  | Change of sum of eigenvalues  :  0.1300E+02 eV
  | Change of total energy        :  0.7081E-01 eV

  End self-consistency iteration #     2       :  max(cpu_time)    wall_clock(cpu1)
  | Time for this iteration                    :        0.107 s           0.127 s
  | Charge density update                      :        0.030 s           0.029 s
  | Density mixing                             :        0.002 s           0.023 s
  | Hartree multipole update                   :        0.005 s           0.004 s
  | Hartree multipole summation                :        0.027 s           0.026 s
  | Integration                                :        0.043 s           0.042 s
  | Solution of K.-S. eqns.                    :        0.001 s           0.002 s
  | Total energy evaluation                    :        0.000 s           0.000 s
------------------------------------------------------------

------------------------------------------------------------
          Begin self-consistency iteration #    3

  Date     :  20190722, Time     :  142631.950
------------------------------------------------------------
  Evaluating new KS density.
  Integration grid: deviation in total charge (<rho> - N_e) =   4.824940E-11
  Pulay mixing of updated and previous charge densities.

  Evaluating partitioned Hartree potential by multipole expansion.
  | Analytical far-field extrapolation by fixed multipoles:
  | Hartree multipole sum: apparent total charge =   0.100605E+01
  Summing up the Hartree potential.
  Time summed over all CPUs for potential: real work        0.099 s, elapsed        0.100 s
  | RMS charge density error from multipole expansion :   0.428633E-03

  Integrating Hamiltonian matrix: batch-based integration.
  Time summed over all CPUs for integration: real work        0.166 s, elapsed        0.168 s

  Updating Kohn-Sham eigenvalues, eigenvectors, occupation numbers, and Fermi level.
  Solving generalized eigenproblem
  Updating Kohn-Sham eigenvalues and eigenfunctions.
  Solving real generalised eigenvalue problem by standard LAPACK (fast)
  Determining occupation numbers for Kohn-Sham eigenstates.
  | Chemical potential (Fermi level) in eV                 : -.18161734E+02
  | Error in electron count due to remaining E_F inaccuracy: -.11048940E-11
  | Maximum occupation number of highest empty state:  0.00E+00

  Highest occupied state (VBM) at    -25.04698035 eV
  | Occupation number:      2.00000000

  Lowest unoccupied state (CBM) at   -18.15772906 eV
  | Occupation number:      0.57115325

  Overall HOMO-LUMO gap:      6.88925129 eV.

  Total energy components:
  | Sum of eigenvalues            :         -89.55606083 Ha       -2436.94440557 eV
  | XC energy correction          :         -16.36814548 Ha        -445.39990022 eV
  | XC potential correction       :          21.03137150 Ha         572.29273647 eV
  | Free-atom electrostatic energy:         -71.89305466 Ha       -1956.30955312 eV
  | Hartree energy correction     :           7.00435491 Ha         190.59819476 eV
  | Entropy correction            :          -0.00016412 Ha          -0.00446582 eV
  | ---------------------------
  | Total energy                  :        -149.78153455 Ha       -4075.76292768 eV
  | Total energy, T -> 0          :        -149.78169867 Ha       -4075.76739350 eV  <-- do not rely on this value for anything but (periodic) metals
  | Electronic free energy        :        -149.78186278 Ha       -4075.77185931 eV

  Derived energy quantities:
  | Kinetic energy                :         149.14319252 Ha        4058.39275713 eV
  | Electrostatic energy          :        -282.55658159 Ha       -7688.75578458 eV
  | Energy correction for multipole
  | error in Hartree potential    :          -0.00033553 Ha          -0.00913030 eV
  | Sum of eigenvalues per atom                           :       -1218.47220278 eV
  | Total energy (T->0) per atom                          :       -2037.88369675 eV  <-- do not rely on this value for anything but (periodic) metals
  | Electronic free energy per atom                       :       -2037.88592966 eV

  Self-consistency convergence accuracy:
  | Change of charge density      :  0.9808E-02
  | Change of sum of eigenvalues  :  0.2843E+01 eV
  | Change of total energy        :  0.5033E-02 eV

  End self-consistency iteration #     3       :  max(cpu_time)    wall_clock(cpu1)
  | Time for this iteration                    :        0.107 s           0.108 s
  | Charge density update                      :        0.030 s           0.031 s
  | Density mixing                             :        0.002 s           0.003 s
  | Hartree multipole update                   :        0.004 s           0.004 s
  | Hartree multipole summation                :        0.026 s           0.026 s
  | Integration                                :        0.043 s           0.042 s
  | Solution of K.-S. eqns.                    :        0.001 s           0.001 s
  | Total energy evaluation                    :        0.000 s           0.001 s
------------------------------------------------------------

------------------------------------------------------------
          Begin self-consistency iteration #    4

  Date     :  20190722, Time     :  142632.059
------------------------------------------------------------
  Evaluating new KS density.
  Integration grid: deviation in total charge (<rho> - N_e) =  -1.012523E-12
  Pulay mixing of updated and previous charge densities.

  Evaluating partitioned Hartree potential by multipole expansion.
  | Analytical far-field extrapolation by fixed multipoles:
  | Hartree multipole sum: apparent total charge =   0.100459E+01
  Summing up the Hartree potential.
  Time summed over all CPUs for potential: real work        0.100 s, elapsed        0.100 s
  | RMS charge density error from multipole expansion :   0.428934E-03

  Integrating Hamiltonian matrix: batch-based integration.
  Time summed over all CPUs for integration: real work        0.166 s, elapsed        0.168 s

  Updating Kohn-Sham eigenvalues, eigenvectors, occupation numbers, and Fermi level.
  Solving generalized eigenproblem
  Updating Kohn-Sham eigenvalues and eigenfunctions.
  Solving real generalised eigenvalue problem by standard LAPACK (fast)
  Determining occupation numbers for Kohn-Sham eigenstates.
  | Chemical potential (Fermi level) in eV                 : -.18149137E+02
  | Error in electron count due to remaining E_F inaccuracy: 0.75357143E-09
  | Maximum occupation number of highest empty state:  0.00E+00

  Highest occupied state (VBM) at    -25.03479289 eV
  | Occupation number:      2.00000000

  Lowest unoccupied state (CBM) at   -18.14437023 eV
  | Occupation number:      0.50021657

  Overall HOMO-LUMO gap:      6.89042266 eV.

  Total energy components:
  | Sum of eigenvalues            :         -89.55015422 Ha       -2436.78367859 eV
  | XC energy correction          :         -16.36818941 Ha        -445.40109561 eV
  | XC potential correction       :          21.03143258 Ha         572.29439840 eV
  | Free-atom electrostatic energy:         -71.89305466 Ha       -1956.30955312 eV
  | Hartree energy correction     :           6.99843771 Ha         190.43717951 eV
  | Entropy correction            :          -0.00016515 Ha          -0.00449404 eV
  | ---------------------------
  | Total energy                  :        -149.78152800 Ha       -4075.76274940 eV
  | Total energy, T -> 0          :        -149.78169315 Ha       -4075.76724344 eV  <-- do not rely on this value for anything but (periodic) metals
  | Electronic free energy        :        -149.78185831 Ha       -4075.77173748 eV

  Derived energy quantities:
  | Kinetic energy                :         149.13927890 Ha        4058.28626227 eV
  | Electrostatic energy          :        -282.55261749 Ha       -7688.64791606 eV
  | Energy correction for multipole
  | error in Hartree potential    :          -0.00033235 Ha          -0.00904361 eV
  | Sum of eigenvalues per atom                           :       -1218.39183930 eV
  | Total energy (T->0) per atom                          :       -2037.88362172 eV  <-- do not rely on this value for anything but (periodic) metals
  | Electronic free energy per atom                       :       -2037.88586874 eV

  Self-consistency convergence accuracy:
  | Change of charge density      :  0.2436E-01
  | Change of sum of eigenvalues  :  0.1607E+00 eV
  | Change of total energy        :  0.1783E-03 eV

  End self-consistency iteration #     4       :  max(cpu_time)    wall_clock(cpu1)
  | Time for this iteration                    :        0.106 s           0.106 s
  | Charge density update                      :        0.030 s           0.030 s
  | Density mixing                             :        0.002 s           0.002 s
  | Hartree multipole update                   :        0.004 s           0.004 s
  | Hartree multipole summation                :        0.026 s           0.026 s
  | Integration                                :        0.043 s           0.042 s
  | Solution of K.-S. eqns.                    :        0.001 s           0.001 s
  | Total energy evaluation                    :        0.000 s           0.000 s
------------------------------------------------------------

------------------------------------------------------------
          Begin self-consistency iteration #    5

  Date     :  20190722, Time     :  142632.167
------------------------------------------------------------
  Evaluating new KS density.
  Integration grid: deviation in total charge (<rho> - N_e) =   7.535732E-10
  Pulay mixing of updated and previous charge densities.

  Evaluating partitioned Hartree potential by multipole expansion.
  | Analytical far-field extrapolation by fixed multipoles:
  | Hartree multipole sum: apparent total charge =   0.100431E+01
  Summing up the Hartree potential.
  Time summed over all CPUs for potential: real work        0.103 s, elapsed        0.104 s
  | RMS charge density error from multipole expansion :   0.428908E-03

  Integrating Hamiltonian matrix: batch-based integration.
  Time summed over all CPUs for integration: real work        0.169 s, elapsed        0.172 s

  Updating Kohn-Sham eigenvalues, eigenvectors, occupation numbers, and Fermi level.
  Solving generalized eigenproblem
  Updating Kohn-Sham eigenvalues and eigenfunctions.
  Solving real generalised eigenvalue problem by standard LAPACK (fast)
  Determining occupation numbers for Kohn-Sham eigenstates.
  | Chemical potential (Fermi level) in eV                 : -.18145831E+02
  | Error in electron count due to remaining E_F inaccuracy: -.64304118E-12
  | Maximum occupation number of highest empty state:  0.00E+00

  Highest occupied state (VBM) at    -25.03219885 eV
  | Occupation number:      2.00000000

  Lowest unoccupied state (CBM) at   -18.14106196 eV
  | Occupation number:      0.50003429

  Overall HOMO-LUMO gap:      6.89113689 eV.

  Total energy components:
  | Sum of eigenvalues            :         -89.54811070 Ha       -2436.72807160 eV
  | XC energy correction          :         -16.36841345 Ha        -445.40719203 eV
  | XC potential correction       :          21.03172166 Ha         572.30226466 eV
  | Free-atom electrostatic energy:         -71.89305466 Ha       -1956.30955312 eV
  | Hartree energy correction     :           6.99632981 Ha         190.37982046 eV
  | Entropy correction            :          -0.00016515 Ha          -0.00449404 eV
  | ---------------------------
  | Total energy                  :        -149.78152735 Ha       -4075.76273163 eV
  | Total energy, T -> 0          :        -149.78169250 Ha       -4075.76722567 eV  <-- do not rely on this value for anything but (periodic) metals
  | Electronic free energy        :        -149.78185765 Ha       -4075.77171971 eV

  Derived energy quantities:
  | Kinetic energy                :         149.14122571 Ha        4058.33923770 eV
  | Electrostatic energy          :        -282.55433961 Ha       -7688.69477731 eV
  | Energy correction for multipole
  | error in Hartree potential    :          -0.00033224 Ha          -0.00904062 eV
  | Sum of eigenvalues per atom                           :       -1218.36403580 eV
  | Total energy (T->0) per atom                          :       -2037.88361284 eV  <-- do not rely on this value for anything but (periodic) metals
  | Electronic free energy per atom                       :       -2037.88585986 eV

  Self-consistency convergence accuracy:
  | Change of charge density      :  0.1070E-02
  | Change of sum of eigenvalues  :  0.5561E-01 eV
  | Change of total energy        :  0.1777E-04 eV

  End self-consistency iteration #     5       :  max(cpu_time)    wall_clock(cpu1)
  | Time for this iteration                    :        0.118 s           0.118 s
  | Charge density update                      :        0.033 s           0.033 s
  | Density mixing                             :        0.005 s           0.004 s
  | Hartree multipole update                   :        0.004 s           0.004 s
  | Hartree multipole summation                :        0.027 s           0.027 s
  | Integration                                :        0.044 s           0.044 s
  | Solution of K.-S. eqns.                    :        0.004 s           0.004 s
  | Total energy evaluation                    :        0.000 s           0.001 s
------------------------------------------------------------

------------------------------------------------------------
          Begin self-consistency iteration #    6

  Date     :  20190722, Time     :  142632.287
------------------------------------------------------------
  Evaluating new KS density.
  Integration grid: deviation in total charge (<rho> - N_e) =  -6.838974E-13
  Pulay mixing of updated and previous charge densities.

  Evaluating partitioned Hartree potential by multipole expansion.
  | Analytical far-field extrapolation by fixed multipoles:
  | Hartree multipole sum: apparent total charge =   0.100012E+01
  Summing up the Hartree potential.
  Time summed over all CPUs for potential: real work        0.100 s, elapsed        0.101 s
  | RMS charge density error from multipole expansion :   0.428760E-03

  Integrating Hamiltonian matrix: batch-based integration.
  Time summed over all CPUs for integration: real work        0.167 s, elapsed        0.169 s

  Updating Kohn-Sham eigenvalues, eigenvectors, occupation numbers, and Fermi level.
  Solving generalized eigenproblem
  Updating Kohn-Sham eigenvalues and eigenfunctions.
  Solving real generalised eigenvalue problem by standard LAPACK (fast)
  Determining occupation numbers for Kohn-Sham eigenstates.
  | Chemical potential (Fermi level) in eV                 : -.18100048E+02
  | Error in electron count due to remaining E_F inaccuracy: -.64481753E-12
  | Maximum occupation number of highest empty state:  0.00E+00

  Highest occupied state (VBM) at    -24.98776297 eV
  | Occupation number:      2.00000000

  Lowest unoccupied state (CBM) at   -18.09527902 eV
  | Occupation number:      0.50002109

  Overall HOMO-LUMO gap:      6.89248395 eV.

  Total energy components:
  | Sum of eigenvalues            :         -89.52282066 Ha       -2436.03989439 eV
  | XC energy correction          :         -16.36995811 Ha        -445.44922444 eV
  | XC potential correction       :          21.03373209 Ha         572.35697139 eV
  | Free-atom electrostatic energy:         -71.89305466 Ha       -1956.30955312 eV
  | Hartree energy correction     :           6.97057713 Ha         189.67905435 eV
  | Entropy correction            :          -0.00016515 Ha          -0.00449404 eV
  | ---------------------------
  | Total energy                  :        -149.78152421 Ha       -4075.76264620 eV
  | Total energy, T -> 0          :        -149.78168936 Ha       -4075.76714024 eV  <-- do not rely on this value for anything but (periodic) metals
  | Electronic free energy        :        -149.78185451 Ha       -4075.77163428 eV

  Derived energy quantities:
  | Kinetic energy                :         149.14637245 Ha        4058.47928747 eV
  | Electrostatic energy          :        -282.55793854 Ha       -7688.79270923 eV
  | Energy correction for multipole
  | error in Hartree potential    :          -0.00032659 Ha          -0.00888699 eV
  | Sum of eigenvalues per atom                           :       -1218.01994719 eV
  | Total energy (T->0) per atom                          :       -2037.88357012 eV  <-- do not rely on this value for anything but (periodic) metals
  | Electronic free energy per atom                       :       -2037.88581714 eV

  Self-consistency convergence accuracy:
  | Change of charge density      :  0.8346E-03
  | Change of sum of eigenvalues  :  0.6882E+00 eV
  | Change of total energy        :  0.8544E-04 eV

  End self-consistency iteration #     6       :  max(cpu_time)    wall_clock(cpu1)
  | Time for this iteration                    :        0.107 s           0.107 s
  | Charge density update                      :        0.030 s           0.030 s
  | Density mixing                             :        0.002 s           0.003 s
  | Hartree multipole update                   :        0.004 s           0.003 s
  | Hartree multipole summation                :        0.026 s           0.026 s
  | Integration                                :        0.043 s           0.043 s
  | Solution of K.-S. eqns.                    :        0.001 s           0.001 s
  | Total energy evaluation                    :        0.000 s           0.001 s
------------------------------------------------------------

------------------------------------------------------------
          Begin self-consistency iteration #    7

  Date     :  20190722, Time     :  142632.396
------------------------------------------------------------
  Evaluating new KS density.
  Integration grid: deviation in total charge (<rho> - N_e) =  -7.638334E-13
  Pulay mixing of updated and previous charge densities.

  Evaluating partitioned Hartree potential by multipole expansion.
  | Analytical far-field extrapolation by fixed multipoles:
  | Hartree multipole sum: apparent total charge =   0.100002E+01
  Summing up the Hartree potential.
  Time summed over all CPUs for potential: real work        0.099 s, elapsed        0.100 s
  | RMS charge density error from multipole expansion :   0.428417E-03

  Integrating Hamiltonian matrix: batch-based integration.
  Time summed over all CPUs for integration: real work        0.167 s, elapsed        0.169 s

  Updating Kohn-Sham eigenvalues, eigenvectors, occupation numbers, and Fermi level.
  Solving generalized eigenproblem
  Updating Kohn-Sham eigenvalues and eigenfunctions.
  Solving real generalised eigenvalue problem by standard LAPACK (fast)
  Determining occupation numbers for Kohn-Sham eigenstates.
  | Chemical potential (Fermi level) in eV                 : -.18101265E+02
  | Error in electron count due to remaining E_F inaccuracy: -.57713834E-11
  | Maximum occupation number of highest empty state:  0.00E+00

  Highest occupied state (VBM) at    -24.98875326 eV
  | Occupation number:      2.00000000

  Lowest unoccupied state (CBM) at   -18.09650106 eV
  | Occupation number:      0.50047440

  Overall HOMO-LUMO gap:      6.89225220 eV.

  Total energy components:
  | Sum of eigenvalues            :         -89.52354704 Ha       -2436.05966017 eV
  | XC energy correction          :         -16.36982437 Ha        -445.44558525 eV
  | XC potential correction       :          21.03355346 Ha         572.35211073 eV
  | Free-atom electrostatic energy:         -71.89305466 Ha       -1956.30955312 eV
  | Hartree energy correction     :           6.97134841 Ha         189.70004210 eV
  | Entropy correction            :          -0.00016515 Ha          -0.00449404 eV
  | ---------------------------
  | Total energy                  :        -149.78152419 Ha       -4075.76264572 eV
  | Total energy, T -> 0          :        -149.78168934 Ha       -4075.76713976 eV  <-- do not rely on this value for anything but (periodic) metals
  | Electronic free energy        :        -149.78185450 Ha       -4075.77163379 eV

  Derived energy quantities:
  | Kinetic energy                :         149.14626095 Ha        4058.47625358 eV
  | Electrostatic energy          :        -282.55796077 Ha       -7688.79331405 eV
  | Energy correction for multipole
  | error in Hartree potential    :          -0.00032653 Ha          -0.00888545 eV
  | Sum of eigenvalues per atom                           :       -1218.02983009 eV
  | Total energy (T->0) per atom                          :       -2037.88356988 eV  <-- do not rely on this value for anything but (periodic) metals
  | Electronic free energy per atom                       :       -2037.88581690 eV

  Self-consistency convergence accuracy:
  | Change of charge density      :  0.2001E-03
  | Change of sum of eigenvalues  : -0.1977E-01 eV
  | Change of total energy        :  0.4796E-06 eV

  End self-consistency iteration #     7       :  max(cpu_time)    wall_clock(cpu1)
  | Time for this iteration                    :        0.107 s           0.107 s
  | Charge density update                      :        0.030 s           0.029 s
  | Density mixing                             :        0.003 s           0.003 s
  | Hartree multipole update                   :        0.004 s           0.004 s
  | Hartree multipole summation                :        0.026 s           0.026 s
  | Integration                                :        0.043 s           0.043 s
  | Solution of K.-S. eqns.                    :        0.001 s           0.001 s
  | Total energy evaluation                    :        0.000 s           0.001 s
------------------------------------------------------------

------------------------------------------------------------
          Begin self-consistency iteration #    8

  Date     :  20190722, Time     :  142632.504
------------------------------------------------------------
  Evaluating new KS density.
  Integration grid: deviation in total charge (<rho> - N_e) =  -5.908163E-12
  Pulay mixing of updated and previous charge densities.

  Evaluating partitioned Hartree potential by multipole expansion.
  | Analytical far-field extrapolation by fixed multipoles:
  | Hartree multipole sum: apparent total charge =   0.100001E+01
  Summing up the Hartree potential.
  Time summed over all CPUs for potential: real work        0.100 s, elapsed        0.101 s
  | RMS charge density error from multipole expansion :   0.428401E-03

  Integrating Hamiltonian matrix: batch-based integration.
  Time summed over all CPUs for integration: real work        0.167 s, elapsed        0.169 s

  Updating Kohn-Sham eigenvalues, eigenvectors, occupation numbers, and Fermi level.
  Solving generalized eigenproblem
  Updating Kohn-Sham eigenvalues and eigenfunctions.
  Solving real generalised eigenvalue problem by standard LAPACK (fast)
  Determining occupation numbers for Kohn-Sham eigenstates.
  | Chemical potential (Fermi level) in eV                 : -.18101321E+02
  | Error in electron count due to remaining E_F inaccuracy: -.59845462E-11
  | Maximum occupation number of highest empty state:  0.00E+00

  Highest occupied state (VBM) at    -24.98880351 eV
  | Occupation number:      2.00000000

  Lowest unoccupied state (CBM) at   -18.09655181 eV
  | Occupation number:      0.50001720

  Overall HOMO-LUMO gap:      6.89225170 eV.

  Total energy components:
  | Sum of eigenvalues            :         -89.52358073 Ha       -2436.06057711 eV
  | XC energy correction          :         -16.36981785 Ha        -445.44540783 eV
  | XC potential correction       :          21.03354475 Ha         572.35187372 eV
  | Free-atom electrostatic energy:         -71.89305466 Ha       -1956.30955312 eV
  | Hartree energy correction     :           6.97138430 Ha         189.70101863 eV
  | Entropy correction            :          -0.00016515 Ha          -0.00449404 eV
  | ---------------------------
  | Total energy                  :        -149.78152419 Ha       -4075.76264571 eV
  | Total energy, T -> 0          :        -149.78168934 Ha       -4075.76713975 eV  <-- do not rely on this value for anything but (periodic) metals
  | Electronic free energy        :        -149.78185450 Ha       -4075.77163379 eV

  Derived energy quantities:
  | Kinetic energy                :         149.14625478 Ha        4058.47608553 eV
  | Electrostatic energy          :        -282.55796111 Ha       -7688.79332341 eV
  | Energy correction for multipole
  | error in Hartree potential    :          -0.00032653 Ha          -0.00888535 eV
  | Sum of eigenvalues per atom                           :       -1218.03028856 eV
  | Total energy (T->0) per atom                          :       -2037.88356987 eV  <-- do not rely on this value for anything but (periodic) metals
  | Electronic free energy per atom                       :       -2037.88581689 eV

  Self-consistency convergence accuracy:
  | Change of charge density      :  0.1627E-03
  | Change of sum of eigenvalues  : -0.9169E-03 eV
  | Change of total energy        :  0.9259E-08 eV

  End self-consistency iteration #     8       :  max(cpu_time)    wall_clock(cpu1)
  | Time for this iteration                    :        0.108 s           0.108 s
  | Charge density update                      :        0.030 s           0.030 s
  | Density mixing                             :        0.003 s           0.003 s
  | Hartree multipole update                   :        0.004 s           0.004 s
  | Hartree multipole summation                :        0.026 s           0.026 s
  | Integration                                :        0.043 s           0.042 s
  | Solution of K.-S. eqns.                    :        0.001 s           0.002 s
  | Total energy evaluation                    :        0.000 s           0.000 s
------------------------------------------------------------

------------------------------------------------------------
          Begin self-consistency iteration #    9

  Date     :  20190722, Time     :  142632.613
------------------------------------------------------------
  Evaluating new KS density.
  Integration grid: deviation in total charge (<rho> - N_e) =  -5.892176E-12
  Pulay mixing of updated and previous charge densities.

  Evaluating partitioned Hartree potential by multipole expansion.
  | Analytical far-field extrapolation by fixed multipoles:
  | Hartree multipole sum: apparent total charge =   0.999995E+00
  Summing up the Hartree potential.
  Time summed over all CPUs for potential: real work        0.100 s, elapsed        0.101 s
  | RMS charge density error from multipole expansion :   0.428396E-03

  Integrating Hamiltonian matrix: batch-based integration.
  Time summed over all CPUs for integration: real work        0.166 s, elapsed        0.168 s

  Updating Kohn-Sham eigenvalues, eigenvectors, occupation numbers, and Fermi level.
  Solving generalized eigenproblem
  Updating Kohn-Sham eigenvalues and eigenfunctions.
  Solving real generalised eigenvalue problem by standard LAPACK (fast)
  Determining occupation numbers for Kohn-Sham eigenstates.
  | Chemical potential (Fermi level) in eV                 : -.18101228E+02
  | Error in electron count due to remaining E_F inaccuracy: -.23803182E-11
  | Maximum occupation number of highest empty state:  0.00E+00

  Highest occupied state (VBM) at    -24.98870443 eV
  | Occupation number:      2.00000000

  Lowest unoccupied state (CBM) at   -18.09645926 eV
  | Occupation number:      0.50003777

  Overall HOMO-LUMO gap:      6.89224518 eV.

  Total energy components:
  | Sum of eigenvalues            :         -89.52353611 Ha       -2436.05936301 eV
  | XC energy correction          :         -16.36981648 Ha        -445.44537030 eV
  | XC potential correction       :          21.03354286 Ha         572.35182220 eV
  | Free-atom electrostatic energy:         -71.89305466 Ha       -1956.30955312 eV
  | Hartree energy correction     :           6.97134019 Ha         189.69981850 eV
  | Entropy correction            :          -0.00016515 Ha          -0.00449404 eV
  | ---------------------------
  | Total energy                  :        -149.78152419 Ha       -4075.76264571 eV
  | Total energy, T -> 0          :        -149.78168934 Ha       -4075.76713975 eV  <-- do not rely on this value for anything but (periodic) metals
  | Electronic free energy        :        -149.78185450 Ha       -4075.77163379 eV

  Derived energy quantities:
  | Kinetic energy                :         149.14623428 Ha        4058.47552785 eV
  | Electrostatic energy          :        -282.55794200 Ha       -7688.79280327 eV
  | Energy correction for multipole
  | error in Hartree potential    :          -0.00032650 Ha          -0.00888452 eV
  | Sum of eigenvalues per atom                           :       -1218.02968150 eV
  | Total energy (T->0) per atom                          :       -2037.88356988 eV  <-- do not rely on this value for anything but (periodic) metals
  | Electronic free energy per atom                       :       -2037.88581690 eV

  Self-consistency convergence accuracy:
  | Change of charge density      :  0.7542E-05
  | Change of sum of eigenvalues  :  0.1214E-02 eV
  | Change of total energy        : -0.3115E-08 eV

  Electronic self-consistency reached - switching on the force computation.

  End self-consistency iteration #     9       :  max(cpu_time)    wall_clock(cpu1)
  | Time for this iteration                    :        0.108 s           0.107 s
  | Charge density & force component update    :        0.030 s           0.030 s
  | Density mixing                             :        0.004 s           0.003 s
  | Hartree multipole update                   :        0.004 s           0.004 s
  | Hartree multipole summation                :        0.026 s           0.026 s
  | Integration                                :        0.043 s           0.042 s
  | Solution of K.-S. eqns.                    :        0.001 s           0.001 s
  | Total energy evaluation                    :        0.000 s           0.001 s
------------------------------------------------------------

------------------------------------------------------------
          Begin self-consistency iteration #   10

  Date     :  20190722, Time     :  142632.722
------------------------------------------------------------
  Evaluating new KS density.
  Integration grid: deviation in total charge (<rho> - N_e) =  -2.559730E-12
  Pulay mixing of updated and previous charge densities.

  Evaluating partitioned Hartree potential by multipole expansion.
  | Analytical far-field extrapolation by fixed multipoles:
  | Hartree multipole sum: apparent total charge =   0.100000E+01
  Summing up the Hartree potential.
  Time summed over all CPUs for potential: real work        0.266 s, elapsed        0.272 s
  | RMS charge density error from multipole expansion :   0.428391E-03

  Integrating Hamiltonian matrix: batch-based integration.
  Time summed over all CPUs for integration: real work        0.167 s, elapsed        0.169 s

  Updating Kohn-Sham eigenvalues, eigenvectors, occupation numbers, and Fermi level.
  Solving generalized eigenproblem
  Updating Kohn-Sham eigenvalues and eigenfunctions.
  Solving real generalised eigenvalue problem by standard LAPACK (fast)
  Determining occupation numbers for Kohn-Sham eigenstates.
  | Chemical potential (Fermi level) in eV                 : -.18101317E+02
  | Error in electron count due to remaining E_F inaccuracy: -.24762414E-11
  | Maximum occupation number of highest empty state:  0.00E+00

  Highest occupied state (VBM) at    -24.98879515 eV
  | Occupation number:      2.00000000

  Lowest unoccupied state (CBM) at   -18.09654747 eV
  | Occupation number:      0.50000004

  Overall HOMO-LUMO gap:      6.89224768 eV.

  Total energy components:
  | Sum of eigenvalues            :         -89.52358166 Ha       -2436.06060245 eV
  | XC energy correction          :         -16.36981346 Ha        -445.44528832 eV
  | XC potential correction       :          21.03353881 Ha         572.35171208 eV
  | Free-atom electrostatic energy:         -71.89305466 Ha       -1956.30955312 eV
  | Hartree energy correction     :           6.97138678 Ha         189.70108611 eV
  | Entropy correction            :          -0.00016515 Ha          -0.00449404 eV
  | ---------------------------
  | Total energy                  :        -149.78152419 Ha       -4075.76264571 eV
  | Total energy, T -> 0          :        -149.78168934 Ha       -4075.76713975 eV  <-- do not rely on this value for anything but (periodic) metals
  | Electronic free energy        :        -149.78185450 Ha       -4075.77163379 eV

  Derived energy quantities:
  | Kinetic energy                :         149.14624968 Ha        4058.47594676 eV
  | Electrostatic energy          :        -282.55796041 Ha       -7688.79330414 eV
  | Energy correction for multipole
  | error in Hartree potential    :          -0.00032651 Ha          -0.00888480 eV
  | Sum of eigenvalues per atom                           :       -1218.03030123 eV
  | Total energy (T->0) per atom                          :       -2037.88356987 eV  <-- do not rely on this value for anything but (periodic) metals
  | Electronic free energy per atom                       :       -2037.88581689 eV

  atomic forces [eV/Ang]:
  -----------------------
  atom #    1
   Hellmann-Feynman              : -0.414604E-10  0.297358E-11 -0.961910E+01
   Ionic forces                  :  0.000000E+00  0.000000E+00  0.000000E+00
   Multipole                     : -0.792060E-13 -0.707032E-13 -0.605955E-01
   Pulay + GGA                   :  0.000000E+00  0.000000E+00  0.000000E+00
   ----------------------------------------------------------------
   Total forces(   1)            : -0.415396E-10  0.290287E-11 -0.967970E+01
  atom #    2
   Hellmann-Feynman              :  0.683241E-11  0.728289E-11  0.961911E+01
   Ionic forces                  :  0.000000E+00  0.000000E+00  0.000000E+00
   Multipole                     : -0.126908E-12 -0.674717E-13  0.605955E-01
   Pulay + GGA                   :  0.000000E+00  0.000000E+00  0.000000E+00
   ----------------------------------------------------------------
   Total forces(   2)            :  0.670550E-11  0.721542E-11  0.967970E+01


  Self-consistency convergence accuracy:
  | Change of charge density      :  0.1320E-04
  | Change of sum of eigenvalues  : -0.1239E-02 eV
  | Change of total energy        :  0.3745E-08 eV
  | Change of forces              :  0.9680E+01 eV/A

  End self-consistency iteration #    10       :  max(cpu_time)    wall_clock(cpu1)
  | Time for this iteration                    :        0.151 s           0.151 s
  | Charge density & force component update    :        0.031 s           0.030 s
  | Density mixing                             :        0.003 s           0.003 s
  | Hartree multipole update                   :        0.004 s           0.004 s
  | Hartree multipole summation                :        0.069 s           0.069 s
  | Integration                                :        0.043 s           0.043 s
  | Solution of K.-S. eqns.                    :        0.001 s           0.001 s
  | Total energy evaluation                    :        0.001 s           0.001 s
------------------------------------------------------------

------------------------------------------------------------
          Begin self-consistency iteration #   11

  Date     :  20190722, Time     :  142632.875
------------------------------------------------------------
  Evaluating new KS density and force components.
  Integration grid: deviation in total charge (<rho> - N_e) =  -2.483347E-12
  Pulay mixing of updated and previous charge densities.

  Evaluating partitioned Hartree potential by multipole expansion.
  | Analytical far-field extrapolation by fixed multipoles:
  | Hartree multipole sum: apparent total charge =   0.100000E+01
  Summing up the Hartree potential.
  Time summed over all CPUs for potential: real work        0.263 s, elapsed        0.269 s
  | RMS charge density error from multipole expansion :   0.428390E-03

  Integrating Hamiltonian matrix: batch-based integration.
  Time summed over all CPUs for integration: real work        0.166 s, elapsed        0.168 s

  Updating Kohn-Sham eigenvalues, eigenvectors, occupation numbers, and Fermi level.
  Solving generalized eigenproblem
  Updating Kohn-Sham eigenvalues and eigenfunctions.
  Solving real generalised eigenvalue problem by standard LAPACK (fast)
  Determining occupation numbers for Kohn-Sham eigenstates.
  | Chemical potential (Fermi level) in eV                 : -.18101318E+02
  | Error in electron count due to remaining E_F inaccuracy: -.24726887E-11
  | Maximum occupation number of highest empty state:  0.00E+00

  Highest occupied state (VBM) at    -24.98879598 eV
  | Occupation number:      2.00000000

  Lowest unoccupied state (CBM) at   -18.09654848 eV
  | Occupation number:      0.50000008

  Overall HOMO-LUMO gap:      6.89224750 eV.

  Total energy components:
  | Sum of eigenvalues            :         -89.52358225 Ha       -2436.06061855 eV
  | XC energy correction          :         -16.36981331 Ha        -445.44528429 eV
  | XC potential correction       :          21.03353862 Ha         572.35170666 eV
  | Free-atom electrostatic energy:         -71.89305466 Ha       -1956.30955312 eV
  | Hartree energy correction     :           6.97138742 Ha         189.70110358 eV
  | Entropy correction            :          -0.00016515 Ha          -0.00449404 eV
  | ---------------------------
  | Total energy                  :        -149.78152419 Ha       -4075.76264571 eV
  | Total energy, T -> 0          :        -149.78168934 Ha       -4075.76713975 eV  <-- do not rely on this value for anything but (periodic) metals
  | Electronic free energy        :        -149.78185450 Ha       -4075.77163379 eV

  Derived energy quantities:
  | Kinetic energy                :         149.14624949 Ha        4058.47594170 eV
  | Electrostatic energy          :        -282.55796037 Ha       -7688.79330312 eV
  | Energy correction for multipole
  | error in Hartree potential    :          -0.00032651 Ha          -0.00888479 eV
  | Sum of eigenvalues per atom                           :       -1218.03030927 eV
  | Total energy (T->0) per atom                          :       -2037.88356987 eV  <-- do not rely on this value for anything but (periodic) metals
  | Electronic free energy per atom                       :       -2037.88581689 eV

  atomic forces [eV/Ang]:
  -----------------------
  atom #    1
   Hellmann-Feynman              : -0.356860E-10  0.130599E-11 -0.961911E+01
   Ionic forces                  :  0.000000E+00  0.000000E+00  0.000000E+00
   Multipole                     : -0.421436E-13 -0.106924E-12 -0.605955E-01
   Pulay + GGA                   :  0.854779E-11  0.365376E-12  0.163296E+02
   ----------------------------------------------------------------
   Total forces(   1)            : -0.271804E-10  0.156444E-11  0.664984E+01
  atom #    2
   Hellmann-Feynman              :  0.534724E-11  0.299202E-11  0.961911E+01
   Ionic forces                  :  0.000000E+00  0.000000E+00  0.000000E+00
   Multipole                     :  0.114403E-13 -0.180061E-12  0.605955E-01
   Pulay + GGA                   : -0.263185E-11 -0.143010E-11 -0.163296E+02
   ----------------------------------------------------------------
   Total forces(   2)            :  0.272684E-11  0.138185E-11 -0.664984E+01


  Self-consistency convergence accuracy:
  | Change of charge density      :  0.2563E-06
  | Change of sum of eigenvalues  : -0.1609E-04 eV
  | Change of total energy        :  0.6342E-10 eV
  | Change of forces              :  0.8533E-05 eV/A

  Writing Kohn-Sham eigenvalues.

  State    Occupation    Eigenvalue [Ha]    Eigenvalue [eV]
      1       2.00000         -19.414671         -528.30007
      2       2.00000         -19.414592         -528.29794
      3       2.00000          -1.661797          -45.21978
      4       2.00000          -1.173236          -31.92539
      5       2.00000          -0.928334          -25.26126
      6       2.00000          -0.918321          -24.98880
      7       2.00000          -0.918321          -24.98880
      8       0.50000          -0.665036          -18.09655
      9       0.50000          -0.665036          -18.09655
     10       0.00000          -0.289643           -7.88159
     11       0.00000          -0.158218           -4.30534
     12       0.00000          -0.110452           -3.00555
     13       0.00000          -0.110452           -3.00555
     14       0.00000          -0.087141           -2.37122

  Highest occupied state (VBM) at    -24.98879598 eV
  | Occupation number:      2.00000000

[...]
  | Density mixing                             :        0.001 s           0.002 s
  | Hartree multipole update                   :        0.004 s           0.003 s
  | Hartree multipole summation                :        0.068 s           0.067 s
  | Integration                                :        0.043 s           0.043 s
  | Solution of K.-S. eqns.                    :        0.001 s           0.001 s
  | Total energy evaluation                    :        0.001 s           0.001 s
------------------------------------------------------------

------------------------------------------------------------
          Begin self-consistency iteration #    6

  Date     :  20190722, Time     :  142639.648
------------------------------------------------------------
  Evaluating new KS density and force components.
  Integration grid: deviation in total charge (<rho> - N_e) =   3.019807E-14
  Pulay mixing of updated and previous charge densities.

  Evaluating partitioned Hartree potential by multipole expansion.
  | Analytical far-field extrapolation by fixed multipoles:
  | Hartree multipole sum: apparent total charge =   0.999999E+00
  Summing up the Hartree potential.
  Time summed over all CPUs for potential: real work        0.265 s, elapsed        0.269 s
  | RMS charge density error from multipole expansion :   0.495335E-03

  Integrating Hamiltonian matrix: batch-based integration.
  Time summed over all CPUs for integration: real work        0.167 s, elapsed        0.168 s

  Updating Kohn-Sham eigenvalues, eigenvectors, occupation numbers, and Fermi level.
  Solving generalized eigenproblem
  Updating Kohn-Sham eigenvalues and eigenfunctions.
  Solving real generalised eigenvalue problem by standard LAPACK (fast)
  Determining occupation numbers for Kohn-Sham eigenstates.
  | Chemical potential (Fermi level) in eV                 : -.17441283E+02
  | Error in electron count due to remaining E_F inaccuracy: 0.16342483E-12
  | Maximum occupation number of highest empty state:  0.00E+00

  Highest occupied state (VBM) at    -25.61030724 eV
  | Occupation number:      2.00000000

  Lowest unoccupied state (CBM) at   -17.43651323 eV
  | Occupation number:      0.50000067

  Overall HOMO-LUMO gap:      8.17379401 eV.

  Total energy components:
  | Sum of eigenvalues            :         -89.79638910 Ha       -2443.48407049 eV
  | XC energy correction          :         -16.45369470 Ha        -447.72781284 eV
  | XC potential correction       :          21.14564624 Ha         575.40231036 eV
  | Free-atom electrostatic energy:         -71.50993990 Ha       -1945.88447024 eV
  | Hartree energy correction     :           6.82129645 Ha         185.61692038 eV
  | Entropy correction            :          -0.00016515 Ha          -0.00449404 eV
  | ---------------------------
  | Total energy                  :        -149.79308101 Ha       -4076.07712282 eV
  | Total energy, T -> 0          :        -149.79324616 Ha       -4076.08161686 eV  <-- do not rely on this value for anything but (periodic) metals
  | Electronic free energy        :        -149.79341132 Ha       -4076.08611090 eV

  Derived energy quantities:
  | Kinetic energy                :         149.45659275 Ha        4066.92081130 eV
  | Electrostatic energy          :        -282.79597906 Ha       -7695.27012128 eV
  | Energy correction for multipole
  | error in Hartree potential    :          -0.00054343 Ha          -0.01478758 eV
  | Sum of eigenvalues per atom                           :       -1221.74203525 eV
  | Total energy (T->0) per atom                          :       -2038.04080843 eV  <-- do not rely on this value for anything but (periodic) metals
  | Electronic free energy per atom                       :       -2038.04305545 eV

  atomic forces [eV/Ang]:
  -----------------------
  atom #    1
   Hellmann-Feynman              :  0.213843E-11  0.298742E-10 -0.155924E+02
   Ionic forces                  :  0.000000E+00  0.000000E+00  0.000000E+00
   Multipole                     :  0.847527E-13  0.374688E-14 -0.593845E-01
   Pulay + GGA                   : -0.128167E-11 -0.630844E-11  0.156517E+02
   ----------------------------------------------------------------
   Total forces(   1)            :  0.941518E-12  0.235695E-10 -0.824992E-04
  atom #    2
   Hellmann-Feynman              : -0.173336E-10  0.325965E-10  0.155924E+02
   Ionic forces                  :  0.000000E+00  0.000000E+00  0.000000E+00
   Multipole                     : -0.835495E-15  0.968341E-15  0.593845E-01
   Pulay + GGA                   :  0.415758E-11 -0.133862E-10 -0.156517E+02
   ----------------------------------------------------------------
   Total forces(   2)            : -0.131769E-10  0.192113E-10  0.827619E-04


  Self-consistency convergence accuracy:
  | Change of charge density      :  0.1598E-06
  | Change of sum of eigenvalues  : -0.1420E-04 eV
  | Change of total energy        : -0.3480E-10 eV
  | Change of forces              :  0.4462E-04 eV/A

  End self-consistency iteration #     6       :  max(cpu_time)    wall_clock(cpu1)
  | Time for this iteration                    :        0.218 s           0.218 s
  | Charge density & force component update    :        0.099 s           0.098 s
  | Density mixing                             :        0.002 s           0.002 s
  | Hartree multipole update                   :        0.004 s           0.004 s
  | Hartree multipole summation                :        0.068 s           0.068 s
  | Integration                                :        0.043 s           0.043 s
  | Solution of K.-S. eqns.                    :        0.001 s           0.001 s
  | Total energy evaluation                    :        0.001 s           0.001 s
------------------------------------------------------------

------------------------------------------------------------
          Begin self-consistency iteration #    7

  Date     :  20190722, Time     :  142639.867
------------------------------------------------------------
  Evaluating new KS density and force components.
  Integration grid: deviation in total charge (<rho> - N_e) =   1.261213E-13
  Pulay mixing of updated and previous charge densities.

  Evaluating partitioned Hartree potential by multipole expansion.
  | Analytical far-field extrapolation by fixed multipoles:
  | Hartree multipole sum: apparent total charge =   0.999999E+00
  Summing up the Hartree potential.
  Time summed over all CPUs for potential: real work        0.264 s, elapsed        0.269 s
  | RMS charge density error from multipole expansion :   0.495335E-03

  Integrating Hamiltonian matrix: batch-based integration.
  Time summed over all CPUs for integration: real work        0.166 s, elapsed        0.167 s

  Updating Kohn-Sham eigenvalues, eigenvectors, occupation numbers, and Fermi level.
  Solving generalized eigenproblem
  Updating Kohn-Sham eigenvalues and eigenfunctions.
  Solving real generalised eigenvalue problem by standard LAPACK (fast)
  Determining occupation numbers for Kohn-Sham eigenstates.
  | Chemical potential (Fermi level) in eV                 : -.17441283E+02
  | Error in electron count due to remaining E_F inaccuracy: 0.26822988E-12
  | Maximum occupation number of highest empty state:  0.00E+00

  Highest occupied state (VBM) at    -25.61030724 eV
  | Occupation number:      2.00000000

  Lowest unoccupied state (CBM) at   -17.43651322 eV
  | Occupation number:      0.50000017

  Overall HOMO-LUMO gap:      8.17379402 eV.

  Total energy components:
  | Sum of eigenvalues            :         -89.79638910 Ha       -2443.48407050 eV
  | XC energy correction          :         -16.45369470 Ha        -447.72781282 eV
  | XC potential correction       :          21.14564624 Ha         575.40231035 eV
  | Free-atom electrostatic energy:         -71.50993990 Ha       -1945.88447024 eV
  | Hartree energy correction     :           6.82129645 Ha         185.61692040 eV
  | Entropy correction            :          -0.00016515 Ha          -0.00449404 eV
  | ---------------------------
  | Total energy                  :        -149.79308101 Ha       -4076.07712282 eV
  | Total energy, T -> 0          :        -149.79324616 Ha       -4076.08161686 eV  <-- do not rely on this value for anything but (periodic) metals
  | Electronic free energy        :        -149.79341132 Ha       -4076.08611090 eV

  Derived energy quantities:
  | Kinetic energy                :         149.45659274 Ha        4066.92081113 eV
  | Electrostatic energy          :        -282.79597906 Ha       -7695.27012113 eV
  | Energy correction for multipole
  | error in Hartree potential    :          -0.00054343 Ha          -0.01478758 eV
  | Sum of eigenvalues per atom                           :       -1221.74203525 eV
  | Total energy (T->0) per atom                          :       -2038.04080843 eV  <-- do not rely on this value for anything but (periodic) metals
  | Electronic free energy per atom                       :       -2038.04305545 eV

  atomic forces [eV/Ang]:
  -----------------------
  atom #    1
   Hellmann-Feynman              :  0.256416E-11  0.303863E-10 -0.155924E+02
   Ionic forces                  :  0.000000E+00  0.000000E+00  0.000000E+00
   Multipole                     :  0.915516E-13  0.710224E-13 -0.593845E-01
   Pulay + GGA                   :  0.194106E-11 -0.938844E-11  0.156517E+02
   ----------------------------------------------------------------
   Total forces(   1)            :  0.459677E-11  0.210689E-10 -0.826061E-04
  atom #    2
   Hellmann-Feynman              : -0.178637E-10  0.312036E-10  0.155924E+02
   Ionic forces                  :  0.000000E+00  0.000000E+00  0.000000E+00
   Multipole                     : -0.749651E-13  0.451124E-13  0.593845E-01
   Pulay + GGA                   :  0.491116E-11 -0.125783E-10 -0.156517E+02
   ----------------------------------------------------------------
   Total forces(   2)            : -0.130275E-10  0.186703E-10  0.826261E-04


  Self-consistency convergence accuracy:
  | Change of charge density      :  0.2400E-06
  | Change of sum of eigenvalues  : -0.1288E-07 eV
  | Change of total energy        : -0.1547E-11 eV
  | Change of forces              :  0.8168E-06 eV/A

  Writing Kohn-Sham eigenvalues.

  State    Occupation    Eigenvalue [Ha]    Eigenvalue [eV]
      1       2.00000         -19.412611         -528.24401
      2       2.00000         -19.412392         -528.23807
      3       2.00000          -1.743894          -47.45377
      4       2.00000          -1.151969          -31.34668
      5       2.00000          -0.957888          -26.06547
      6       2.00000          -0.957888          -26.06547
      7       2.00000          -0.941161          -25.61031
      8       0.50000          -0.640780          -17.43651
      9       0.50000          -0.640780          -17.43651
     10       0.00000          -0.181161           -4.92964
     11       0.00000          -0.160859           -4.37719
     12       0.00000          -0.115282           -3.13698
     13       0.00000          -0.115282           -3.13698
     14       0.00000          -0.061530           -1.67430

  Highest occupied state (VBM) at    -25.61030724 eV
  | Occupation number:      2.00000000

  Lowest unoccupied state (CBM) at   -17.43651322 eV
  | Occupation number:      0.50000017

  Overall HOMO-LUMO gap:      8.17379402 eV.

  Self-consistency cycle converged.

  End self-consistency iteration #     7       :  max(cpu_time)    wall_clock(cpu1)
  | Time for this iteration                    :        0.218 s           0.218 s
  | Charge density & force component update    :        0.099 s           0.098 s
  | Density mixing                             :        0.002 s           0.003 s
  | Hartree multipole update                   :        0.004 s           0.004 s
  | Hartree multipole summation                :        0.068 s           0.068 s
  | Integration                                :        0.043 s           0.042 s
  | Solution of K.-S. eqns.                    :        0.001 s           0.001 s
  | Total energy evaluation                    :        0.001 s           0.001 s
------------------------------------------------------------
  Writing cluster restart information to file restart
  Removing unitary transformations (pure translations, rotations) from forces on atoms.
  Atomic forces before filtering:
  | Net force on center of mass :  -0.843073E-11  0.397392E-10  0.199637E-07 eV/A
  | Net torque on center of mass:   0.134653E-11 -0.989410E-11  0.135119E-86 eV
  Atomic forces after filtering:
  | Net force on center of mass :  -0.259615E-26  0.103846E-25  0.000000E+00 eV/A
  | Net torque on center of mass:   0.291491E-26 -0.145746E-26  0.227503-101 eV

  Energy and forces in a compact form:
  | Total energy uncorrected      :         -0.407607712281859E+04 eV
  | Total energy corrected        :         -0.407608161685788E+04 eV  <-- do not rely on this value for anything but (periodic) metals
  | Electronic free energy        :         -0.407608611089717E+04 eV
  Total atomic forces (unitary forces cleaned) [eV/Ang]:
  |   1          0.000000000000000E+00          0.778845238351347E-26         -0.826161309908944E-04
  |   2         -0.259615079450449E-26          0.259615079450449E-26          0.826161309908944E-04

  ------------------------------------ 
  Start decomposition of the XC Energy 
  ------------------------------------ 
  Hartree-Fock part   :          0.000000000 Ha              0.000000000 eV
  ------------------------------------ 
  X Energy            :        -15.950253734 Ha           -434.028487237 eV
  C Energy GGA        :         -0.503440962 Ha            -13.699325588 eV
  Total XC Energy     :        -16.453694696 Ha           -447.727812825 eV
  LDA X and C from self-consistent density 
  X Energy LDA        :        -14.465850560 Ha           -393.635821715 eV
  C Energy LDA        :         -1.061660528 Ha            -28.889252834 eV
  ------------------------------------ 
  End decomposition of the XC Energy 
  ------------------------------------ 
  Relaxation / MD: End force evaluation.       :  max(cpu_time)    wall_clock(cpu1)
  | Time for this force evaluation             :        1.296 s           1.320 s

------------------------------------------------------------
  Geometry optimization: Attempting to predict improved coordinates.

  Removing unitary transformations (pure translations, rotations) from forces on atoms.
  Atomic forces before filtering:
  | Net force on center of mass :  -0.259615E-26  0.103846E-25  0.000000E+00 eV/A
  | Net torque on center of mass:   0.291491E-26 -0.145746E-26  0.227503-101 eV
  Atomic forces after filtering:
  | Net force on center of mass :  -0.432346E-42  0.115292E-41  0.000000E+00 eV/A
  | Net torque on center of mass:   0.647240E-42 -0.809050E-43  0.497255-117 eV
  Net remaining forces (excluding translations, rotations) in present geometry:
  Maximum force component is  0.826161E-04 eV/A.
  Present geometry is converged.

------------------------------------------------------------
  Final atomic structure:
                         x [A]             y [A]             z [A]
            atom         0.00000000       -0.00000000        0.04235920  O
            atom        -0.00000000       -0.00000000        1.16514080  O
------------------------------------------------------------

------------------------------------------------------------------------------
  Final output of selected total energy values:

  The following output summarizes some interesting total energy values
  at the end of a run (AFTER all relaxation, molecular dynamics, etc.).

  | Total energy of the DFT / Hartree-Fock s.c.f. calculation      :          -4076.077122819 eV
  | Final zero-broadening corrected energy (caution - metals only) :          -4076.081616858 eV
  | For reference only, the value of 1 Hartree used in FHI-aims is :             27.211384500 eV

  Before relying on these values, please be sure to understand exactly which
  total energy value is referred to by a given number. Different objects may
  all carry the same name 'total energy'. Definitions:

  Total energy of the DFT / Hartree-Fock s.c.f. calculation:
  | Note that this energy does not include ANY quantities calculated after the
  | s.c.f. cycle, in particular not ANY RPA, MP2, etc. many-body perturbation terms.

  Final zero-broadening corrected energy:
  | For metallic systems only, a broadening of the occupation numbers at the Fermi
  | level can be extrapolated back to zero broadening by an electron-gas inspired
  | formula. For all systems that are not real metals, this value can be
  | meaningless and should be avoided.

------------------------------------------------------------------------------
  Methods described in the following list of references were used in this FHI-aims run.
  If you publish the results, please make sure to cite these reference if they apply.
  FHI-aims is an academic code, and for our developers (often, Ph.D. students
  and postdocs), scientific credit in the community is essential.
  Thank you for helping us!

  For any use of FHI-aims, please cite:

    Volker Blum, Ralf Gehrke, Felix Hanke, Paula Havu, Ville Havu,
    Xinguo Ren, Karsten Reuter, and Matthias Scheffler
    'Ab initio molecular simulations with numeric atom-centered orbitals'
    Computer Physics Communications 180, 2175-2196 (2009)
    http://dx.doi.org/10.1016/j.cpc.2009.06.022


  For the real-space grid partitioning and parallelization used in this calculation, please cite:

    Ville Havu, Volker Blum, Paula Havu, and Matthias Scheffler,
    'Efficient O(N) integration for all-electron electronic structure calculation'
    'using numerically tabulated basis functions'
    Journal of Computational Physics 228, 8367-8379 (2009).
    http://dx.doi.org/10.1016/j.jcp.2009.08.008

  Of course, there are many other important community references, e.g., those cited in the
  above references. Our list is limited to references that describe implementations in the
  FHI-aims code. The reason is purely practical (length of this list) - please credit others as well.

------------------------------------------------------------
          Leaving FHI-aims.
          Date     :  20190722, Time     :  142640.419

          Computational steps:
          | Number of self-consistency cycles          :           58
          | Number of relaxation steps                 :            5

          Detailed time accounting                     :  max(cpu_time)    wall_clock(cpu1)
          | Total time                                 :        8.717 s           9.890 s
          | Preparation time                           :        0.170 s           0.559 s
          | Grid partitioning                          :        0.129 s           0.137 s
          | Preloading free-atom quantities on grid    :        0.058 s           0.056 s
          | Free-atom superposition energy             :        0.056 s           0.053 s
          | Total time for integrations                :        2.667 s           2.724 s
          | Total time for solution of K.-S. equations :        0.096 s           0.214 s
          | Total time for EV reorthonormalization     :        0.001 s           0.003 s
          | Total time for density & force components  :        2.614 s           2.605 s
          | Total time for mixing                      :        0.115 s           0.148 s
          | Total time for Hartree multipole update    :        0.251 s           0.228 s
          | Total time for Hartree multipole sum       :        2.285 s           2.273 s
          | Total time for total energy evaluation     :        0.031 s           0.052 s

          Have a nice day.
------------------------------------------------------------
