  MPI-parallelism will be employed.
------------------------------------------------------------
          Invoking FHI-aims ...
          Version 160328_3
          Compiled on 2019/06/10 at 14:55:49 on host taito-login3.csc.fi.

          When using FHI-aims, please cite the following reference:

          Volker Blum, Ralf Gehrke, Felix Hanke, Paula Havu,
          Ville Havu, Xinguo Ren, Karsten Reuter, and Matthias Scheffler,
          'Ab Initio Molecular Simulations with Numeric Atom-Centered Orbitals',
          Computer Physics Communications 180, 2175-2196 (2009)

          For any questions about FHI-aims, please visit the aimsclub website
          with its forums and wiki. Contributions to both the forums and the
          wiki are warmly encouraged - they are for you, and everyone is welcome there.

------------------------------------------------------------

  Date     :  20190722, Time     :  141625.151
  Time zero on CPU 1             :   0.619900000000000E-01  s.
  Internal wall clock time zero  :           333036985.151  s.

  Using        4 parallel tasks.
  Task        0 on host c635 reporting.
  Task        1 on host c635 reporting.
  Task        2 on host c635 reporting.
  Task        3 on host c635 reporting.

  Performing system and environment tests:
  | Environment variable OMP_NUM_THREADS correctly set to 1.
  | Maximum stacksize for task 0: unlimited
  | Maximum stacksize for task 1: unlimited
  | Maximum stacksize for task 2: unlimited
  | Maximum stacksize for task 3: unlimited
  | Current stacksize for task 0: 1024 [Mb]
  | Current stacksize for task 1: 1024 [Mb]
  | Current stacksize for task 2: 1024 [Mb]
  | Current stacksize for task 3: 1024 [Mb]
  | Checking for scalapack...
  | No scalapack compiled in.

  Obtaining array dimensions for all initial allocations:
  
  -----------------------------------------------------------------------
  Parsing control.in (first pass over file, find array dimensions only).
  The contents of control.in will be repeated verbatim below
  unless switched off by setting 'verbatim_writeout .false.' .
  in the first line of control.in .
  -----------------------------------------------------------------------
  
    #  Physical model settings
    #
  
    xc                            pbe
    charge                        1.0
    relativistic                  none
  #  default_initial_moment        0.0
    spin                          none
  #  vdw_correction_hirshfeld
  
    #  SCF convergence settings
    #
  
    sc_accuracy_rho               1E-4
    sc_accuracy_eev               1E-2
    sc_accuracy_etot              1E-8
    sc_iter_limit                 100
  
    #  Occupation settings
    #
  
    restart                       restart
  #  force_occupation_projector      5 1 1.0 5 5 # ion 4
  
    #  Relaxation
    #
  
    relax_geometry                bfgs    1.e-4
  
  
  ################################################################################
  #
  #  FHI-aims code project
  #  VB, Fritz-Haber Institut, 2007
  #
  #  Suggested "safe" defaults for O atom (to be pasted into control.in file)
  #
  ################################################################################
    species        O
  #     global species definitions
      nucleus             8
      mass                15.9994
  #
      l_hartree           8
  #
      cut_pot             4.0  2.0  1.0
      basis_dep_cutoff    0.d0
  #
      radial_base         36 7.0
      radial_multiplier   2
       angular_grids specified
        division   0.4087  110
        division   0.5181  194
        division   0.6184  302
        division   0.7315  434
        division   0.7934  590
  #      division   0.9656  770
  #      division   1.4041  974
  #      outer_grid 974
        outer_grid 590
  ################################################################################
  #
  #  Definition of "minimal" basis
  #
  ################################################################################
  #     valence basis states
      valence      2  s   2.
      valence      2  p   4.
  #     ion occupancy
      ion_occ      2  s   1.
      ion_occ      2  p   3.
  ################################################################################
  #
  #  Suggested additional basis functions. For production calculations,
  #  uncomment them one after another (the most important basis functions are
  #  listed first).
  #
  #  Constructed for dimers: 1.0 A, 1.208 A, 1.5 A, 2.0 A, 3.0 A
  #
  ################################################################################
  #  "First tier" - improvements: -699.05 meV to -159.38 meV
       hydro 2 p 1.8
       hydro 3 d 7.6
       hydro 3 s 6.4
  #  "Second tier" - improvements: -49.91 meV to -5.39 meV
       hydro 4 f 11.6
       hydro 3 p 6.2
       hydro 3 d 5.6
       hydro 5 g 17.6
       hydro 1 s 0.75
  #  "Third tier" - improvements: -2.83 meV to -0.50 meV
  #     ionic 2 p auto
  #     hydro 4 f 10.8
  #     hydro 4 d 4.7
  #     hydro 2 s 6.8
  #  "Fourth tier" - improvements: -0.40 meV to -0.12 meV
  #     hydro 3 p 5
  #     hydro 3 s 3.3
  #     hydro 5 g 15.6
  #     hydro 4 f 17.6
  #     hydro 4 d 14
  # Further basis functions - -0.08 meV and below
  #     hydro 3 s 2.1
  #     hydro 4 d 11.6
  #     hydro 3 p 16
  #     hydro 2 s 17.2
  
  -----------------------------------------------------------------------
  Completed first pass over input file control.in .
  -----------------------------------------------------------------------
  
  
  -----------------------------------------------------------------------
  Parsing geometry.in (first pass over file, find array dimensions only).
  The contents of geometry.in will be repeated verbatim below
  unless switched off by setting 'verbatim_writeout .false.' .
  in the first line of geometry.in .
  -----------------------------------------------------------------------
  
  atom 0.0 0.0 0.0 O
  atom 0.0 0.0 1.2075 O
  
  -----------------------------------------------------------------------
  Completed first pass over input file geometry.in .
  -----------------------------------------------------------------------
  

  Basic array size parameters:
  | Number of species                 :        1
  | Number of atoms                   :        2
  | Max. basis fn. angular momentum   :        4
  | Max. atomic/ionic basis occupied n:        2
  | Max. number of basis fn. types    :        2
  | Max. radial fns per species/type  :        8
  | Max. logarithmic grid size        :     1301
  | Max. radial integration grid size :       73
  | Max. angular integration grid size:      590
  | Max. angular grid division number :        8
  | Radial grid for Hartree potential :     1301
  | Number of spin channels           :        1

------------------------------------------------------------
          Reading file control.in.
------------------------------------------------------------
  XC: Using PBE gradient-corrected functionals.
  Charged system requested: Charge =   0.100000E+01.
  Non-relativistic treatment of kinetic energy.
  Spin treatment: No spin polarisation.
  Convergence accuracy of self-consistent charge density:  0.1000E-03
  Convergence accuracy of sum of eigenvalues:  0.1000E-01
  Convergence accuracy of total energy:  0.1000E-07
  Maximum number of s.-c. iterations  :   100
  Restart file specified as : restart
  | Reading information from existing file.
  Geometry relaxation: Modified BFGS - TRM (trust radius method, i.e., trusted quadratic extrapolation).
  Convergence accuracy for geometry relaxation: Maximum force <   0.100000E-03 eV/A.
 
  Reading configuration options for species O                   .
  | Found nuclear charge :   8.0000
  | Found atomic mass :    15.9994000000000      amu
  | Found l_max for Hartree potential  :   8
  | Found cutoff potl. onset [A], width [A], scale factor :    4.00000    2.00000    1.00000
  | Threshold for basis-dependent cutoff potential is   0.000000E+00
  | Found data for basic radial integration grid :    36 points, outermost radius =    7.000 A
  | Found multiplier for basic radial grid :   2
  | Found angular grid specification: user-specified.
  | Specified grid contains     6 separate shells.
  | Check grid settings after all constraints further below.
  | Found free-atom valence shell :  2 s   2.000
  | Found free-atom valence shell :  2 p   4.000
  | No ionic wave fns used. Skipping ion_occ.
  | No ionic wave fns used. Skipping ion_occ.
  | Found hydrogenic basis function :  2 p   1.800
  | Found hydrogenic basis function :  3 d   7.600
  | Found hydrogenic basis function :  3 s   6.400
  | Found hydrogenic basis function :  4 f  11.600
  | Found hydrogenic basis function :  3 p   6.200
  | Found hydrogenic basis function :  3 d   5.600
  | Found hydrogenic basis function :  5 g  17.600
  | Found hydrogenic basis function :  1 s   0.750
  Species O                   : Missing cutoff potential type.
  Defaulting to exp(1/x)/(1-x)^2 type cutoff potential.
  Species O : No 'logarithmic' tag. Using default grid for free atom:
  | Default logarithmic grid data [bohr] : 0.1000E-03 0.1000E+03 0.1012E+01
  Species O : On-site basis accuracy parameter (for Gram-Schmidt orthonormalisation) not specified.
  Using default value basis_acc =  0.1000000E-03.
  Species O                   : Using default innermost maximum threshold i_radial=  2 for radial functions.
  Species O                   : Default cutoff onset for free atom density etc. : 0.40000000E+01 AA.
  Species O                   : Basic radial grid will be enhanced according to radial_multiplier =   2, to contain    73 grid points.
 
  Finished reading input file 'control.in'. Consistency checks are next.
 
  Target number of points in a grid batch is not set. Defaulting to  100
  Method for grid partitioning is not set. Defaulting to parallel hash+maxmin partitioning.
  Batch size limit is not set. Defaulting to    200
  By default, will store active basis functions for each batch.
  If in need of memory, prune_basis_once .false. can be used to disable this option.
  communication_type for Hartree potential was not specified.
  Defaulting to calc_hartree .
  Defaulting to Pulay charge density mixer.
  Pulay mixer: Number of relevant iterations not set.
  Defaulting to    8 iterations.
  Pulay mixer: Number of initial linear mixing iterations not set.
  Defaulting to    0 iterations.
  Work space size for distributed Hartree potential not set.
  Defaulting to   0.200000E+03 MB.
  Mixing parameter for charge density mixing has not been set.
  Using default: charge_mix_param =     0.2000.
  Algorithm-dependent basis array size parameters:
  | n_max_pulay                         :        8
  No maximum number of relaxation steps, defaulting to     1000
  Default initial Hessian is Lindh matrix (thres = 15.00) plus  0.200000E+01 eV/A^2 times unity.
  No maximum energy tolerance for TRM/BFGS moves, defaulting to   0.200000E-03
  No harmonic length scale. Defaulting to   0.250000E-01 A.
  No trust radius initializer. Defaulting to   0.200000E+00 A.
  Force calculation: scf convergence accuracy of forces not set.
  Required force accuracy for relaxation overrides required scf force convergence accuracy.
  Defaulting to  0.2000E-04 eV/A.
  Handling of forces: Unphysical translation and rotation will be removed from forces.
  No accuracy limit for integral partition fn. given. Defaulting to  0.1000E-14.
  No threshold value for u(r) in integrations given. Defaulting to  0.1000E-05.
  No occupation type (smearing scheme) given. Defaulting to Gaussian broadening, width =  0.1000E-01 eV.
  No accuracy for occupation numbers given. Defaulting to  0.1000E-07.
  No threshold value for occupation numbers given. Defaulting to  0.0000E+00.
  No accuracy for fermi level given. Defaulting to  0.1000E-19.
  Maximum # of iterations to find E_F not set. Defaulting to  200.
  Preferred method for the eigenvalue solver ('KS_method') not specified in 'control.in'.
  Calling blacs routine to test compilation state
  The best choice would be 'elpa', but your version of FHI-aims is compiled without scalapack support.
  Defaulting to 'lapack_fast' instead (serial solution, time will not improve with more CPUs).
  Will not use alltoall communication since running on < 1024 CPUs.
  Threshold for basis singularities not set.
  Default threshold for basis singularities:  0.1000E-04
  partition_type (choice of integration weights) for integrals was not specified.
  | Using a version of the partition function of Stratmann and coworkers ('stratmann_smoother').
  | At each grid point, the set of atoms used to build the partition table is smoothly restricted to
  | only those atoms whose free-atom density would be non-zero at that grid point.
  Partitioning for Hartree potential was not defined. Using partition_type for integrals.
  | Adjusted default value of keyword multip_moments_threshold to:       0.10000000E-11
  | This value may affect high angular momentum components of the Hartree potential in periodic systems.
  No q(lm)/r^(l+1) cutoff set for long-range Hartree potential.
  | Using default value of  0.100000E-09 .
  | Verify using the multipole_threshold keyword.
  Defaulting to new monopole extrapolation.
  Density update method: automatic selection selected.
  Geometry relaxation: A file "geometry.in.next_step" is written out by default after each step.
  | This file contains the geometry of the current relaxation step as well as
  | the current Hessian matrix needed to restart the relaxation algorithm.
  | If you do not want part or all of this information, use the keywords
  | "write_restart_geometry" or "hessian_to_restart_geometry" to switch the output off.
------------------------------------------------------------


------------------------------------------------------------
          Reading geometry description geometry.in.
------------------------------------------------------------
 * Warning: Initial charge and total charge of the system are inconsistent.
 * Selected charge in control.in:     1.0000* Sum of initial charges in geometry.in:     0.0000
  Input structure read successfully.
  The structure contains        2 atoms,  and a total of         15.000 electrons.

  Input geometry:
  | No unit cell requested.
  | Atomic structure:
  |       Atom                x [A]            y [A]            z [A]
  |    1: Species O              0.000000         0.000000         0.000000
  |    2: Species O              0.000000         0.000000         1.207500
  |

  | The smallest distance between any two atoms is         1.20750000 AA.
  |
  | The first atom of this pair is atom number                      1 .
  | The second atom of this pair is atom number                     2 .

  Number of empty states per atom not set in control.in - providing a guess from actual geometry.
  | Total number of empty states used during s.c.f. cycle:        6
  If you use a very high smearing, use empty_states (per atom!) in control.in to increase this value.

  Structure-dependent array size parameters: 
  | Maximum number of distinct radial functions  :       11
  | Maximum number of basis functions            :       78
  | Number of Kohn-Sham states (occupied + empty):       14
------------------------------------------------------------

------------------------------------------------------------
          Preparing all fixed parts of the calculation.
------------------------------------------------------------
  Determining machine precision:
    2.225073858507201E-308
  Setting up grids for atomic and cluster calculations.

  Creating wave function, potential, and density for free atoms.

  Species: O

  List of occupied orbitals and eigenvalues:
    n    l              occ      energy [Ha]    energy [eV]
    1    0           2.0000       -18.898576      -514.2564
    2    0           2.0000        -0.878795       -23.9132
    2    1           4.0000        -0.332075        -9.0362

  Creating fixed part of basis set: Ionic, confined, hydrogenic.
 
  O                    hydrogenic:
 
  List of hydrogenic basis orbitals: 
    n    l      effective z      eigenvalue [eV]  inner max. [A]     outer max. [A]     outer radius [A]   
    2    1         1.800000       -11.0118           1.178562           1.178562           5.432602
    3    2         7.600000       -87.3183           0.624125           0.624125           4.634338
    3    0         6.400000       -61.9210           0.061167           1.081902           5.110480
    4    3        11.600000      -114.4239           0.731631           0.731631           4.522403
    3    1         6.200000       -58.1114           0.255680           1.030270           5.110480
    3    2         5.600000       -47.4083           0.847233           0.847233           5.173339
    5    4        17.600000      -168.5800           0.749740           0.749740           4.051222
    1    0         0.750000        -7.6499           0.705284           0.705284           5.366593
 

  Adding cutoff potential to free-atom effective potential.
  Creating atomic-like basis functions for current effective potential.

  Species O                   :

  List of atomic basis orbitals and eigenvalues:
    n    l      energy [Ha]    energy [eV]    outer radius [A]
    1    0       -18.898576      -514.2564       1.415765
    2    0        -0.878795       -23.9132       5.048385
    2    1        -0.332075        -9.0362       5.301386

  Assembling full basis from fixed parts.
  | Species O :   atomic orbital   1 s accepted.
  | Species O :   atomic orbital   2 s accepted.
  | Species O :    hydro orbital   3 s accepted.
  | Species O :    hydro orbital   1 s accepted.
  | Species O :   atomic orbital   2 p accepted.
  | Species O :    hydro orbital   2 p accepted.
  | Species O :    hydro orbital   3 p accepted.
  | Species O :    hydro orbital   3 d accepted.
  | Species O :    hydro orbital   3 d accepted.
  | Species O :    hydro orbital   4 f accepted.
  | Species O :    hydro orbital   5 g accepted.
 
  Basis size parameters after reduction:
  | Total number of radial functions:       11
  | Total number of basis functions :       78
 
  Testing on-site integration grid accuracy.
  |  Species  Function  <phi|h_atom|phi> (log., in eV)  <phi|h_atom|phi> (rad., in eV)
           1        1               -514.2564144315               -514.2564099626
           1        2                -23.9132357102                -23.9132356433
           1        3                 17.5398579759                 17.5398338425
           1        4                 14.5207278950                 14.5207740449
           1        5                 -9.0362392718                 -9.0362394845
           1        6                  7.9056275927                  7.9056237490
           1        7                 33.4201658992                 33.4201612015
           1        8                 45.8231952720                 45.8231953152
           1        9                 52.1937595491                 52.1937593440
           1       10                 85.4062894308                 85.4062894578
           1       11                142.0975701139                142.0975701391

  Preparing densities etc. for the partition functions (integrals / Hartree potential).

  Preparations completed.
  max(cpu_time)          :      0.148 s.
  Wall clock time (cpu1) :      0.162 s.
------------------------------------------------------------

------------------------------------------------------------
          Begin self-consistency loop: Initialization.

          Date     :  20190722, Time     :  141625.345
------------------------------------------------------------

  Initializing index lists of integration centers etc. from given atomic structure:
  | Number of centers in hartree potential         :         2
  | Number of centers in hartree multipole         :         2
  | Number of centers in electron density summation:         2
  | Number of centers in basis integrals           :         2
  | Number of centers in integrals                 :         2
  | Number of centers in hamiltonian               :         2
  Initializing relaxation algorithms.
  Partitioning the integration grid into batches with parallel hashing+maxmin method.
  | Number of batches:      742
  | Maximal batch size:     112
  | Minimal batch size:      49
  | Average batch size:      71.779
  | Standard deviation of batch sizes:      21.702

  Integration load balanced across     4 MPI tasks.
  Work distribution over tasks is as follows:
  Task     0 has      13280 integration points.
  Task     1 has      13300 integration points.
  Task     2 has      13300 integration points.
  Task     3 has      13380 integration points.
  Initializing partition tables, free-atom densities, potentials, etc. across the integration grid (initialize_grid_storage).
  | initialize_grid_storage: Actual outermost partition radius vs. multipole_radius_free
  | (-- VB: in principle, multipole_radius_free should be larger, hence this output)
  | Species        1: Confinement radius =              6.000000000000000 AA, multipole_radius_free =              6.064445521808699 AA.
  | Species        1: outer_partition_radius set to              6.064445521808699 AA .
  | Original list of interatomic distances with           2 x          2 entries is created.
  | Net number of integration points:    53260
  | of which are non-zero points    :    50204
  Obtaining max. number of non-zero basis functions in each batch (get_n_compute_maxes).
  | Maximal number of non-zero basis functions:       78 in task     0
  | Maximal number of non-zero basis functions:       78 in task     1
  | Maximal number of non-zero basis functions:       78 in task     2
  | Maximal number of non-zero basis functions:       78 in task     3
  Selecting the method for density update.
  Loop over occupied states selected for charge density update.
  Integrating Hamiltonian matrix: batch-based integration.
  Time summed over all CPUs for integration: real work        0.170 s, elapsed        0.173 s
  Integrating overlap matrix.
  Time summed over all CPUs for integration: real work        0.061 s, elapsed        0.062 s

  Reading cluster restart information from file restart
  Writing Kohn-Sham eigenvalues.

  State    Occupation    Eigenvalue [Ha]    Eigenvalue [eV]
      1       2.00000         -18.899017         -514.26841
      2       2.00000         -18.898949         -514.26656
      3       2.00000          -1.184417          -32.22963
      4       2.00000          -0.729679          -19.85558
      5       2.00000          -0.485100          -13.20023
      6       2.00000          -0.466128          -12.68400
      7       2.00000          -0.466128          -12.68400
      8       1.00000          -0.218591           -5.94815
      9       1.00000          -0.218591           -5.94815
     10       0.00000           0.079443            2.16176
     11       0.00000           0.098996            2.69383
     12       0.00000           0.137495            3.74142
     13       0.00000           0.000000            0.00000
     14       0.00000           0.000000            0.00000

  Highest occupied state (VBM) at     -5.94815131 eV
  | Occupation number:      1.00000017

  Lowest unoccupied state (CBM) at    -5.94815131 eV
  | Occupation number:      0.99999983

  Overall HOMO-LUMO gap:      0.00000000 eV.
*** get_ev_sum_p0 expected pure occ_numbers
*** sum(occ_numbers) =  1.5999999999999915E+01 instead of  1.5000000000000000E+01
  Calculating total energy contributions from superposition of free atom densities.
*** get_entropy_correction expected pure occ_numbers
*** sum(occ_numbers) =  1.5999999999999915E+01 instead of  1.5000000000000000E+01
*** get_penalty_energy expected pure occ_numbers
*** sum(occ_numbers) =  1.5999999999999915E+01 instead of  1.5000000000000000E+01

  Total energy components:
  | Sum of eigenvalues            :         -82.69601734 Ha       -2250.27312447 eV
  | XC energy correction          :         -16.76402082 Ha        -456.17221629 eV
  | XC potential correction       :          21.55039927 Ha         586.41620056 eV
  | Free-atom electrostatic energy:         -71.89305466 Ha       -1956.30955312 eV
  | Hartree energy correction     :           0.00000000 Ha           0.00000000 eV
  | Entropy correction            :          -0.00020734 Ha          -0.00564190 eV
  | ---------------------------
  | Total energy                  :        -149.80269355 Ha       -4076.33869332 eV
  | Total energy, T -> 0          :        -149.80290089 Ha       -4076.34433522 eV  <-- do not rely on this value for anything but (periodic) metals
  | Electronic free energy        :        -149.80310822 Ha       -4076.34997712 eV

  Derived energy quantities:
  | Kinetic energy                :         150.15786701 Ha        4086.00345478 eV
  | Electrostatic energy          :        -283.19653974 Ha       -7706.16993181 eV
  | Energy correction for multipole
  | error in Hartree potential    :           0.00000000 Ha           0.00000000 eV
  | Sum of eigenvalues per atom                           :       -1125.13656224 eV
  | Total energy (T->0) per atom                          :       -2038.17216761 eV  <-- do not rely on this value for anything but (periodic) metals
  | Electronic free energy per atom                       :       -2038.17498856 eV
  Initialize hartree_potential_storage
  Max. number of atoms included in rho_multipole:            2

  End scf initialization - timings             :  max(cpu_time)    wall_clock(cpu1)
  | Time for scf. initialization               :        0.172 s           0.172 s
  | Boundary condition initialization          :        0.000 s           0.001 s
  | Relaxation initialization                  :        0.001 s           0.000 s
  | Integration                                :        0.060 s           0.060 s
  | Solution of K.-S. eqns.                    :        0.047 s           0.048 s
  | Grid partitioning                          :        0.023 s           0.023 s
  | Preloading free-atom quantities on grid    :        0.017 s           0.017 s
  | Free-atom superposition energy             :        0.009 s           0.009 s
  | Total energy evaluation                    :        0.001 s           0.002 s
------------------------------------------------------------

------------------------------------------------------------
          Initial SCF-cycle to compute last known
          density from restart information.

  Date     :  20190722, Time     :  141625.518
------------------------------------------------------------
*** scf_solver:charge expected kweighted occ_numbers
*** sum(occ_numbers) =  1.5999999999999915E+01 instead of  1.5000000000000000E+01
  Evaluating new KS density.
*** update_density_and_forces_p2 expected kweighted occ_numbers
*** sum(occ_numbers) =  1.5999999999999915E+01 instead of  1.5000000000000000E+01
  Integration grid: deviation in total charge (<rho> - N_e) =   1.005173E+00

  Evaluating partitioned Hartree potential by multipole expansion.
  | Analytical far-field extrapolation by fixed multipoles:
  | Hartree multipole sum: apparent total charge =  -0.517280E-02
  Summing up the Hartree potential.
  Time summed over all CPUs for potential: real work        0.105 s, elapsed        0.109 s
  | RMS charge density error from multipole expansion :   0.509478E-03

  Integrating Hamiltonian matrix: batch-based integration.
  Time summed over all CPUs for integration: real work        0.174 s, elapsed        0.177 s

  Updating Kohn-Sham eigenvalues, eigenvectors, occupation numbers, and Fermi level.
  Solving generalized eigenproblem
  Updating Kohn-Sham eigenvalues and eigenfunctions.
  Transforming overlap matrix and checking for singularities.
  Overlap matrix is nonsingular:
  | Lowest eigenvalue:  0.279359E-03
  Solving real generalised eigenvalue problem by standard LAPACK (fast)
  Determining occupation numbers for Kohn-Sham eigenstates.
  | Chemical potential (Fermi level) in eV                 : -.57742416E+01
  | Error in electron count due to remaining E_F inaccuracy: -.43543658E-09
  | Maximum occupation number of highest empty state:  0.00E+00

  Highest occupied state (VBM) at    -12.69690328 eV
  | Occupation number:      2.00000000

  Lowest unoccupied state (CBM) at    -5.76947232 eV
  | Occupation number:      0.50000845

  Overall HOMO-LUMO gap:      6.92743096 eV.

  Total energy components:
  | Sum of eigenvalues            :         -82.45304588 Ha       -2243.66153469 eV
  | XC energy correction          :         -16.83537249 Ha        -458.11379391 eV
  | XC potential correction       :          21.64313178 Ha         588.93958077 eV
  | Free-atom electrostatic energy:         -71.89305466 Ha       -1956.30955312 eV
  | Hartree energy correction     :          -0.46593495 Ha         -12.67873516 eV
  | Entropy correction            :          -0.00016515 Ha          -0.00449404 eV
  | ---------------------------
  | Total energy                  :        -150.00427619 Ha       -4081.82403611 eV
  | Total energy, T -> 0          :        -150.00444135 Ha       -4081.82853015 eV  <-- do not rely on this value for anything but (periodic) metals
  | Electronic free energy        :        -150.00460650 Ha       -4081.83302419 eV

  Derived energy quantities:
  | Kinetic energy                :         150.07665425 Ha        4083.79354339 eV
  | Electrostatic energy          :        -283.24555796 Ha       -7707.50378559 eV
  | Energy correction for multipole
  | error in Hartree potential    :          -0.00038387 Ha          -0.01044569 eV
  | Sum of eigenvalues per atom                           :       -1121.83076735 eV
  | Total energy (T->0) per atom                          :       -2040.91426507 eV  <-- do not rely on this value for anything but (periodic) metals
  | Electronic free energy per atom                       :       -2040.91651209 eV

  Self-consistency convergence accuracy:
  | Change of charge density      :  0.1361E+00
  | Change of sum of eigenvalues  :  0.6612E+01 eV
  | Change of total energy        : -0.5485E+01 eV

  End self-consistency iteration #     0       :  max(cpu_time)    wall_clock(cpu1)
  | Time for this iteration                    :        0.123 s           0.122 s
  | Charge density update                      :        0.034 s           0.033 s
  | Density mixing                             :        0.000 s           0.000 s
  | Hartree multipole update                   :        0.005 s           0.004 s
  | Hartree multipole summation                :        0.028 s           0.029 s
  | Integration                                :        0.045 s           0.045 s
  | Solution of K.-S. eqns.                    :        0.007 s           0.008 s
  | Total energy evaluation                    :        0.000 s           0.001 s
------------------------------------------------------------

------------------------------------------------------------
          Begin self-consistency iteration #    1

  Date     :  20190722, Time     :  141625.642
------------------------------------------------------------
  Evaluating new KS density.
  Integration grid: deviation in total charge (<rho> - N_e) =  -4.352962E-10
  Pulay mixing of updated and previous charge densities.

  Evaluating partitioned Hartree potential by multipole expansion.
  | Analytical far-field extrapolation by fixed multipoles:
  | Hartree multipole sum: apparent total charge =   0.195862E+00
  Summing up the Hartree potential.
  Time summed over all CPUs for potential: real work        0.099 s, elapsed        0.100 s
  | RMS charge density error from multipole expansion :   0.461894E-03

  Integrating Hamiltonian matrix: batch-based integration.
  Time summed over all CPUs for integration: real work        0.172 s, elapsed        0.175 s

  Updating Kohn-Sham eigenvalues, eigenvectors, occupation numbers, and Fermi level.
  Solving generalized eigenproblem
  Updating Kohn-Sham eigenvalues and eigenfunctions.
  Solving real generalised eigenvalue problem by standard LAPACK (fast)
  Determining occupation numbers for Kohn-Sham eigenstates.
  | Chemical potential (Fermi level) in eV                 : -.88571658E+01
  | Error in electron count due to remaining E_F inaccuracy: 0.70876638E-12
  | Maximum occupation number of highest empty state:  0.00E+00

  Writing Kohn-Sham eigenvalues.

  State    Occupation    Eigenvalue [Ha]    Eigenvalue [eV]
      1       2.00000         -19.049426         -518.36127
      2       2.00000         -19.049349         -518.35915
      3       2.00000          -1.311462          -35.68669
      4       2.00000          -0.835503          -22.73518
      5       2.00000          -0.595189          -16.19591
      6       2.00000          -0.579467          -15.76810
      7       2.00000          -0.579467          -15.76810
      8       0.50008          -0.325320           -8.85240
      9       0.49992          -0.325320           -8.85240
     10       0.00000           0.012532            0.34102
     11       0.00000           0.044758            1.21794
     12       0.00000           0.083369            2.26859
     13       0.00000           0.083369            2.26859
     14       0.00000           0.131084            3.56699

  Highest occupied state (VBM) at    -15.76809599 eV
  | Occupation number:      2.00000000

  Lowest unoccupied state (CBM) at    -8.85239730 eV
  | Occupation number:      0.50007512

  Overall HOMO-LUMO gap:      6.91569869 eV.

  Total energy components:
  | Sum of eigenvalues            :         -84.32504408 Ha       -2294.60119756 eV
  | XC energy correction          :         -16.68161551 Ha        -453.92985364 eV
  | XC potential correction       :          21.44182418 Ha         583.46172205 eV
  | Free-atom electrostatic energy:         -71.89305466 Ha       -1956.30955312 eV
  | Hartree energy correction     :           1.55086002 Ha          42.20104824 eV
  | Entropy correction            :          -0.00016515 Ha          -0.00449404 eV
  | ---------------------------
  | Total energy                  :        -149.90703005 Ha       -4079.17783402 eV
  | Total energy, T -> 0          :        -149.90719521 Ha       -4079.18232806 eV  <-- do not rely on this value for anything but (periodic) metals
  | Electronic free energy        :        -149.90736036 Ha       -4079.18682210 eV

  Derived energy quantities:
  | Kinetic energy                :         149.51978409 Ha        4068.64033521 eV
  | Electrostatic energy          :        -282.74519864 Ha       -7693.88831559 eV
  | Energy correction for multipole
  | error in Hartree potential    :          -0.00027692 Ha          -0.00753539 eV
  | Sum of eigenvalues per atom                           :       -1147.30059878 eV
  | Total energy (T->0) per atom                          :       -2039.59116403 eV  <-- do not rely on this value for anything but (periodic) metals
  | Electronic free energy per atom                       :       -2039.59341105 eV

  Self-consistency convergence accuracy:
  | Change of charge density      :  0.2179E+00
  | Change of sum of eigenvalues  : -0.5094E+02 eV
  | Change of total energy        :  0.2646E+01 eV

  End self-consistency iteration #     1       :  max(cpu_time)    wall_clock(cpu1)
  | Time for this iteration                    :        0.110 s           0.109 s
  | Charge density update                      :        0.031 s           0.030 s
  | Density mixing                             :        0.002 s           0.002 s
  | Hartree multipole update                   :        0.004 s           0.004 s
  | Hartree multipole summation                :        0.027 s           0.026 s
  | Integration                                :        0.044 s           0.044 s
  | Solution of K.-S. eqns.                    :        0.001 s           0.002 s
  | Total energy evaluation                    :        0.000 s           0.001 s
------------------------------------------------------------

------------------------------------------------------------
          Begin self-consistency iteration #    2

  Date     :  20190722, Time     :  141625.752
------------------------------------------------------------
  Evaluating new KS density.
  Integration grid: deviation in total charge (<rho> - N_e) =   5.613288E-13
  Pulay mixing of updated and previous charge densities.

  Evaluating partitioned Hartree potential by multipole expansion.
  | Analytical far-field extrapolation by fixed multipoles:
  | Hartree multipole sum: apparent total charge =   0.548145E+00
  Summing up the Hartree potential.
  Time summed over all CPUs for potential: real work        0.116 s, elapsed        0.169 s
  | RMS charge density error from multipole expansion :   0.430324E-03

  Integrating Hamiltonian matrix: batch-based integration.
  Time summed over all CPUs for integration: real work        0.173 s, elapsed        0.176 s

  Updating Kohn-Sham eigenvalues, eigenvectors, occupation numbers, and Fermi level.
  Solving generalized eigenproblem
  Updating Kohn-Sham eigenvalues and eigenfunctions.
  Solving real generalised eigenvalue problem by standard LAPACK (fast)
  Determining occupation numbers for Kohn-Sham eigenstates.
  | Chemical potential (Fermi level) in eV                 : -.13752688E+02
  | Error in electron count due to remaining E_F inaccuracy: -.11329249E-09
  | Maximum occupation number of highest empty state:  0.00E+00

  Highest occupied state (VBM) at    -20.63308792 eV
  | Occupation number:      2.00000000

  Lowest unoccupied state (CBM) at   -13.74793585 eV
  | Occupation number:      0.50154648

  Overall HOMO-LUMO gap:      6.88515206 eV.

  Total energy components:
  | Sum of eigenvalues            :         -87.20766499 Ha       -2373.04130347 eV
  | XC energy correction          :         -16.46637780 Ha        -448.07293761 eV
  | XC potential correction       :          21.15998356 Ha         575.79244867 eV
  | Free-atom electrostatic energy:         -71.89305466 Ha       -1956.30955312 eV
  | Hartree energy correction     :           4.59351552 Ha         124.99591697 eV
  | Entropy correction            :          -0.00016515 Ha          -0.00449403 eV
  | ---------------------------
  | Total energy                  :        -149.81359837 Ha       -4076.63542855 eV
  | Total energy, T -> 0          :        -149.81376352 Ha       -4076.63992258 eV  <-- do not rely on this value for anything but (periodic) metals
  | Electronic free energy        :        -149.81392867 Ha       -4076.64441661 eV

  Derived energy quantities:
  | Kinetic energy                :         148.82545487 Ha        4049.74667579 eV
  | Electrostatic energy          :        -282.17267544 Ha       -7678.30916674 eV
  | Energy correction for multipole
  | error in Hartree potential    :          -0.00017668 Ha          -0.00480780 eV
  | Sum of eigenvalues per atom                           :       -1186.52065174 eV
  | Total energy (T->0) per atom                          :       -2038.31996129 eV  <-- do not rely on this value for anything but (periodic) metals
  | Electronic free energy per atom                       :       -2038.32220830 eV

  Self-consistency convergence accuracy:
  | Change of charge density      :  0.1325E+00
  | Change of sum of eigenvalues  : -0.7844E+02 eV
  | Change of total energy        :  0.2542E+01 eV

  End self-consistency iteration #     2       :  max(cpu_time)    wall_clock(cpu1)
  | Time for this iteration                    :        0.128 s           0.127 s
  | Charge density update                      :        0.031 s           0.031 s
  | Density mixing                             :        0.002 s           0.002 s
  | Hartree multipole update                   :        0.004 s           0.004 s
  | Hartree multipole summation                :        0.044 s           0.044 s
  | Integration                                :        0.045 s           0.044 s
  | Solution of K.-S. eqns.                    :        0.001 s           0.001 s
  | Total energy evaluation                    :        0.000 s           0.001 s
------------------------------------------------------------

------------------------------------------------------------
          Begin self-consistency iteration #    3

  Date     :  20190722, Time     :  141625.881
------------------------------------------------------------
  Evaluating new KS density.
  Integration grid: deviation in total charge (<rho> - N_e) =  -1.131859E-10
  Pulay mixing of updated and previous charge densities.

  Evaluating partitioned Hartree potential by multipole expansion.
  | Analytical far-field extrapolation by fixed multipoles:
  | Hartree multipole sum: apparent total charge =   0.102682E+01
  Summing up the Hartree potential.
  Time summed over all CPUs for potential: real work        0.099 s, elapsed        0.100 s
  | RMS charge density error from multipole expansion :   0.424837E-03

  Integrating Hamiltonian matrix: batch-based integration.
  Time summed over all CPUs for integration: real work        0.169 s, elapsed        0.172 s

  Updating Kohn-Sham eigenvalues, eigenvectors, occupation numbers, and Fermi level.
  Solving generalized eigenproblem
  Updating Kohn-Sham eigenvalues and eigenfunctions.
  Solving real generalised eigenvalue problem by standard LAPACK (fast)
  Determining occupation numbers for Kohn-Sham eigenstates.
  | Chemical potential (Fermi level) in eV                 : -.18730184E+02
  | Error in electron count due to remaining E_F inaccuracy: -.18056134E-09
  | Maximum occupation number of highest empty state:  0.00E+00

  Highest occupied state (VBM) at    -25.60259783 eV
  | Occupation number:      2.00000000

  Lowest unoccupied state (CBM) at   -18.72627760 eV
  | Occupation number:      0.58066393

  Overall HOMO-LUMO gap:      6.87632023 eV.

  Total energy components:
  | Sum of eigenvalues            :         -89.90892148 Ha       -2446.54623229 eV
  | XC energy correction          :         -16.33334305 Ha        -444.45287803 eV
  | XC potential correction       :          20.98564549 Ha         571.04846852 eV
  | Free-atom electrostatic energy:         -71.89305466 Ha       -1956.30955312 eV
  | Hartree energy correction     :           7.36744676 Ha         200.47842657 eV
  | Entropy correction            :          -0.00016382 Ha          -0.00445775 eV
  | ---------------------------
  | Total energy                  :        -149.78222693 Ha       -4075.78176834 eV
  | Total energy, T -> 0          :        -149.78239075 Ha       -4075.78622609 eV  <-- do not rely on this value for anything but (periodic) metals
  | Electronic free energy        :        -149.78255457 Ha       -4075.79068384 eV

  Derived energy quantities:
  | Kinetic energy                :         148.96669900 Ha        4053.59012430 eV
  | Electrostatic energy          :        -282.41558288 Ha       -7684.91901462 eV
  | Energy correction for multipole
  | error in Hartree potential    :          -0.00030563 Ha          -0.00831666 eV
  | Sum of eigenvalues per atom                           :       -1223.27311615 eV
  | Total energy (T->0) per atom                          :       -2037.89311305 eV  <-- do not rely on this value for anything but (periodic) metals
  | Electronic free energy per atom                       :       -2037.89534192 eV

  Self-consistency convergence accuracy:
  | Change of charge density      :  0.5820E-01
  | Change of sum of eigenvalues  : -0.7350E+02 eV
  | Change of total energy        :  0.8537E+00 eV

  End self-consistency iteration #     3       :  max(cpu_time)    wall_clock(cpu1)
  | Time for this iteration                    :        0.108 s           0.108 s
  | Charge density update                      :        0.031 s           0.031 s
  | Density mixing                             :        0.001 s           0.002 s
  | Hartree multipole update                   :        0.005 s           0.004 s
  | Hartree multipole summation                :        0.026 s           0.025 s
  | Integration                                :        0.044 s           0.044 s
  | Solution of K.-S. eqns.                    :        0.001 s           0.001 s
  | Total energy evaluation                    :        0.000 s           0.001 s
------------------------------------------------------------

------------------------------------------------------------
          Begin self-consistency iteration #    4

  Date     :  20190722, Time     :  141625.991
------------------------------------------------------------
  Evaluating new KS density.
  Integration grid: deviation in total charge (<rho> - N_e) =  -1.805258E-10
  Pulay mixing of updated and previous charge densities.

  Evaluating partitioned Hartree potential by multipole expansion.
  | Analytical far-field extrapolation by fixed multipoles:
  | Hartree multipole sum: apparent total charge =   0.102175E+01
  Summing up the Hartree potential.
  Time summed over all CPUs for potential: real work        0.098 s, elapsed        0.098 s
  | RMS charge density error from multipole expansion :   0.423312E-03

  Integrating Hamiltonian matrix: batch-based integration.
  Time summed over all CPUs for integration: real work        0.170 s, elapsed        0.173 s

  Updating Kohn-Sham eigenvalues, eigenvectors, occupation numbers, and Fermi level.
  Solving generalized eigenproblem
  Updating Kohn-Sham eigenvalues and eigenfunctions.
  Solving real generalised eigenvalue problem by standard LAPACK (fast)
  Determining occupation numbers for Kohn-Sham eigenstates.
  | Chemical potential (Fermi level) in eV                 : -.18629313E+02
  | Error in electron count due to remaining E_F inaccuracy: -.97688453E-08
  | Maximum occupation number of highest empty state:  0.00E+00

  Highest occupied state (VBM) at    -25.50369987 eV
  | Occupation number:      2.00000000

  Lowest unoccupied state (CBM) at   -18.62521502 eV
  | Occupation number:      0.56219708

  Overall HOMO-LUMO gap:      6.87848486 eV.

  Total energy components:
  | Sum of eigenvalues            :         -89.84656883 Ha       -2444.84953044 eV
  | XC energy correction          :         -16.33901116 Ha        -444.60711504 eV
  | XC potential correction       :          20.99306726 Ha         571.25042503 eV
  | Free-atom electrostatic energy:         -71.89305466 Ha       -1956.30955312 eV
  | Hartree energy correction     :           7.30354410 Ha         198.73954662 eV
  | Entropy correction            :          -0.00016436 Ha          -0.00447249 eV
  | ---------------------------
  | Total energy                  :        -149.78202329 Ha       -4075.77622694 eV
  | Total energy, T -> 0          :        -149.78218765 Ha       -4075.78069943 eV  <-- do not rely on this value for anything but (periodic) metals
  | Electronic free energy        :        -149.78235201 Ha       -4075.78517191 eV

  Derived energy quantities:
  | Kinetic energy                :         148.99935013 Ha        4054.47860677 eV
  | Electrostatic energy          :        -282.44236226 Ha       -7685.64771868 eV
  | Energy correction for multipole
  | error in Hartree potential    :          -0.00031090 Ha          -0.00846004 eV
  | Sum of eigenvalues per atom                           :       -1222.42476522 eV
  | Total energy (T->0) per atom                          :       -2037.89034971 eV  <-- do not rely on this value for anything but (periodic) metals
  | Electronic free energy per atom                       :       -2037.89258596 eV

  Self-consistency convergence accuracy:
  | Change of charge density      :  0.3656E-01
  | Change of sum of eigenvalues  :  0.1697E+01 eV
  | Change of total energy        :  0.5541E-02 eV

  End self-consistency iteration #     4       :  max(cpu_time)    wall_clock(cpu1)
  | Time for this iteration                    :        0.106 s           0.107 s
  | Charge density update                      :        0.030 s           0.029 s
  | Density mixing                             :        0.001 s           0.002 s
  | Hartree multipole update                   :        0.005 s           0.004 s
  | Hartree multipole summation                :        0.026 s           0.026 s
  | Integration                                :        0.044 s           0.043 s
  | Solution of K.-S. eqns.                    :        0.001 s           0.002 s
  | Total energy evaluation                    :        0.001 s           0.000 s
------------------------------------------------------------

------------------------------------------------------------
          Begin self-consistency iteration #    5

  Date     :  20190722, Time     :  141626.099
------------------------------------------------------------
  Evaluating new KS density.
  Integration grid: deviation in total charge (<rho> - N_e) =  -9.768932E-09
  Pulay mixing of updated and previous charge densities.

  Evaluating partitioned Hartree potential by multipole expansion.
  | Analytical far-field extrapolation by fixed multipoles:
  | Hartree multipole sum: apparent total charge =   0.995872E+00
  Summing up the Hartree potential.
  Time summed over all CPUs for potential: real work        0.098 s, elapsed        0.098 s
  | RMS charge density error from multipole expansion :   0.417389E-03

  Integrating Hamiltonian matrix: batch-based integration.
  Time summed over all CPUs for integration: real work        0.173 s, elapsed        0.176 s

  Updating Kohn-Sham eigenvalues, eigenvectors, occupation numbers, and Fermi level.
  Solving generalized eigenproblem
  Updating Kohn-Sham eigenvalues and eigenfunctions.
  Solving real generalised eigenvalue problem by standard LAPACK (fast)
  Determining occupation numbers for Kohn-Sham eigenstates.
  | Chemical potential (Fermi level) in eV                 : -.18180437E+02
  | Error in electron count due to remaining E_F inaccuracy: 0.19019559E-08
  | Maximum occupation number of highest empty state:  0.00E+00

  Highest occupied state (VBM) at    -25.06215337 eV
  | Occupation number:      2.00000000

  Lowest unoccupied state (CBM) at   -18.17567615 eV
  | Occupation number:      0.50075119

  Overall HOMO-LUMO gap:      6.88647722 eV.

  Total energy components:
  | Sum of eigenvalues            :         -89.57457776 Ha       -2437.44827673 eV
  | XC energy correction          :         -16.36205908 Ha        -445.23428088 eV
  | XC potential correction       :          21.02324705 Ha         572.07165897 eV
  | Free-atom electrostatic energy:         -71.89305466 Ha       -1956.30955312 eV
  | Hartree energy correction     :           7.02488832 Ha         191.15693712 eV
  | Entropy correction            :          -0.00016515 Ha          -0.00449404 eV
  | ---------------------------
  | Total energy                  :        -149.78155612 Ha       -4075.76351463 eV
  | Total energy, T -> 0          :        -149.78172127 Ha       -4075.76800867 eV  <-- do not rely on this value for anything but (periodic) metals
  | Electronic free energy        :        -149.78188643 Ha       -4075.77250270 eV

  Derived energy quantities:
  | Kinetic energy                :         149.11892289 Ha        4057.73234695 eV
  | Electrostatic energy          :        -282.53841993 Ha       -7688.26158070 eV
  | Energy correction for multipole
  | error in Hartree potential    :          -0.00032844 Ha          -0.00893724 eV
  | Sum of eigenvalues per atom                           :       -1218.72413836 eV
  | Total energy (T->0) per atom                          :       -2037.88400433 eV  <-- do not rely on this value for anything but (periodic) metals
  | Electronic free energy per atom                       :       -2037.88625135 eV

  Self-consistency convergence accuracy:
  | Change of charge density      :  0.2944E-01
  | Change of sum of eigenvalues  :  0.7401E+01 eV
  | Change of total energy        :  0.1271E-01 eV

  End self-consistency iteration #     5       :  max(cpu_time)    wall_clock(cpu1)
  | Time for this iteration                    :        0.108 s           0.108 s
  | Charge density update                      :        0.030 s           0.030 s
  | Density mixing                             :        0.002 s           0.002 s
  | Hartree multipole update                   :        0.005 s           0.004 s
  | Hartree multipole summation                :        0.026 s           0.026 s
  | Integration                                :        0.044 s           0.044 s
  | Solution of K.-S. eqns.                    :        0.001 s           0.001 s
  | Total energy evaluation                    :        0.000 s           0.001 s
------------------------------------------------------------

------------------------------------------------------------
          Begin self-consistency iteration #    6

  Date     :  20190722, Time     :  141626.209
------------------------------------------------------------
  Evaluating new KS density.
  Integration grid: deviation in total charge (<rho> - N_e) =   1.901839E-09
  Pulay mixing of updated and previous charge densities.

  Evaluating partitioned Hartree potential by multipole expansion.
  | Analytical far-field extrapolation by fixed multipoles:
  | Hartree multipole sum: apparent total charge =   0.998649E+00
  Summing up the Hartree potential.
  Time summed over all CPUs for potential: real work        0.099 s, elapsed        0.100 s
  | RMS charge density error from multipole expansion :   0.426871E-03

  Integrating Hamiltonian matrix: batch-based integration.
  Time summed over all CPUs for integration: real work        0.172 s, elapsed        0.174 s

  Updating Kohn-Sham eigenvalues, eigenvectors, occupation numbers, and Fermi level.
  Solving generalized eigenproblem
  Updating Kohn-Sham eigenvalues and eigenfunctions.
  Solving real generalised eigenvalue problem by standard LAPACK (fast)
  Determining occupation numbers for Kohn-Sham eigenstates.
  | Chemical potential (Fermi level) in eV                 : -.18100983E+02
  | Error in electron count due to remaining E_F inaccuracy: -.30624392E-11
  | Maximum occupation number of highest empty state:  0.00E+00

  Highest occupied state (VBM) at    -24.98914761 eV
  | Occupation number:      2.00000000

  Lowest unoccupied state (CBM) at   -18.09623036 eV
  | Occupation number:      0.50146359

  Overall HOMO-LUMO gap:      6.89291725 eV.

  Total energy components:
  | Sum of eigenvalues            :         -89.52376791 Ha       -2436.06567048 eV
  | XC energy correction          :         -16.36940644 Ha        -445.43421276 eV
  | XC potential correction       :          21.03297990 Ha         572.33650334 eV
  | Free-atom electrostatic energy:         -71.89305466 Ha       -1956.30955312 eV
  | Hartree energy correction     :           6.97172454 Ha         189.71027704 eV
  | Entropy correction            :          -0.00016515 Ha          -0.00449403 eV
  | ---------------------------
  | Total energy                  :        -149.78152457 Ha       -4075.76265597 eV
  | Total energy, T -> 0          :        -149.78168972 Ha       -4075.76715000 eV  <-- do not rely on this value for anything but (periodic) metals
  | Electronic free energy        :        -149.78185487 Ha       -4075.77164402 eV

  Derived energy quantities:
  | Kinetic energy                :         149.14673546 Ha        4058.48916545 eV
  | Electrostatic energy          :        -282.55885358 Ha       -7688.81760867 eV
  | Energy correction for multipole
  | error in Hartree potential    :          -0.00032739 Ha          -0.00890861 eV
  | Sum of eigenvalues per atom                           :       -1218.03283524 eV
  | Total energy (T->0) per atom                          :       -2037.88357500 eV  <-- do not rely on this value for anything but (periodic) metals
  | Electronic free energy per atom                       :       -2037.88582201 eV

  Self-consistency convergence accuracy:
  | Change of charge density      :  0.7215E-02
  | Change of sum of eigenvalues  :  0.1383E+01 eV
  | Change of total energy        :  0.8587E-03 eV

  End self-consistency iteration #     6       :  max(cpu_time)    wall_clock(cpu1)
  | Time for this iteration                    :        0.109 s           0.110 s
  | Charge density update                      :        0.030 s           0.031 s
  | Density mixing                             :        0.002 s           0.003 s
  | Hartree multipole update                   :        0.005 s           0.004 s
  | Hartree multipole summation                :        0.026 s           0.025 s
  | Integration                                :        0.044 s           0.044 s
  | Solution of K.-S. eqns.                    :        0.001 s           0.002 s
  | Total energy evaluation                    :        0.001 s           0.001 s
------------------------------------------------------------

------------------------------------------------------------
          Begin self-consistency iteration #    7

  Date     :  20190722, Time     :  141626.320
------------------------------------------------------------
  Evaluating new KS density.
  Integration grid: deviation in total charge (<rho> - N_e) =  -2.724931E-12
  Pulay mixing of updated and previous charge densities.

  Evaluating partitioned Hartree potential by multipole expansion.
  | Analytical far-field extrapolation by fixed multipoles:
  | Hartree multipole sum: apparent total charge =   0.999769E+00
  Summing up the Hartree potential.
  Time summed over all CPUs for potential: real work        0.100 s, elapsed        0.101 s
  | RMS charge density error from multipole expansion :   0.427770E-03

  Integrating Hamiltonian matrix: batch-based integration.
  Time summed over all CPUs for integration: real work        0.172 s, elapsed        0.175 s

  Updating Kohn-Sham eigenvalues, eigenvectors, occupation numbers, and Fermi level.
  Solving generalized eigenproblem
  Updating Kohn-Sham eigenvalues and eigenfunctions.
  Solving real generalised eigenvalue problem by standard LAPACK (fast)
  Determining occupation numbers for Kohn-Sham eigenstates.
  | Chemical potential (Fermi level) in eV                 : -.18110114E+02
  | Error in electron count due to remaining E_F inaccuracy: 0.69277917E-13
  | Maximum occupation number of highest empty state:  0.00E+00

  Highest occupied state (VBM) at    -24.99745126 eV
  | Occupation number:      2.00000000

  Lowest unoccupied state (CBM) at   -18.10537598 eV
  | Occupation number:      0.50283738

  Overall HOMO-LUMO gap:      6.89207527 eV.

  Total energy components:
  | Sum of eigenvalues            :         -89.52932831 Ha       -2436.21697662 eV
  | XC energy correction          :         -16.36904854 Ha        -445.42447366 eV
  | XC potential correction       :          21.03252601 Ha         572.32415236 eV
  | Free-atom electrostatic energy:         -71.89305466 Ha       -1956.30955312 eV
  | Hartree energy correction     :           6.97738100 Ha         189.86419714 eV
  | Entropy correction            :          -0.00016515 Ha          -0.00449399 eV
  | ---------------------------
  | Total energy                  :        -149.78152449 Ha       -4075.76265390 eV
  | Total energy, T -> 0          :        -149.78168964 Ha       -4075.76714790 eV  <-- do not rely on this value for anything but (periodic) metals
  | Electronic free energy        :        -149.78185479 Ha       -4075.77164189 eV

  Derived energy quantities:
  | Kinetic energy                :         149.14279010 Ha        4058.38180671 eV
  | Electrostatic energy          :        -282.55526605 Ha       -7688.71998695 eV
  | Energy correction for multipole
  | error in Hartree potential    :          -0.00032631 Ha          -0.00887927 eV
  | Sum of eigenvalues per atom                           :       -1218.10848831 eV
  | Total energy (T->0) per atom                          :       -2037.88357395 eV  <-- do not rely on this value for anything but (periodic) metals
  | Electronic free energy per atom                       :       -2037.88582095 eV

  Self-consistency convergence accuracy:
  | Change of charge density      :  0.7649E-03
  | Change of sum of eigenvalues  : -0.1513E+00 eV
  | Change of total energy        :  0.2068E-05 eV

  End self-consistency iteration #     7       :  max(cpu_time)    wall_clock(cpu1)
  | Time for this iteration                    :        0.110 s           0.110 s
  | Charge density update                      :        0.031 s           0.031 s
  | Density mixing                             :        0.003 s           0.003 s
  | Hartree multipole update                   :        0.004 s           0.004 s
  | Hartree multipole summation                :        0.026 s           0.026 s
  | Integration                                :        0.044 s           0.044 s
  | Solution of K.-S. eqns.                    :        0.001 s           0.001 s
  | Total energy evaluation                    :        0.000 s           0.001 s
------------------------------------------------------------

------------------------------------------------------------
          Begin self-consistency iteration #    8

  Date     :  20190722, Time     :  141626.432
------------------------------------------------------------
  Evaluating new KS density.
  Integration grid: deviation in total charge (<rho> - N_e) =   4.973799E-14
  Pulay mixing of updated and previous charge densities.

  Evaluating partitioned Hartree potential by multipole expansion.
  | Analytical far-field extrapolation by fixed multipoles:
  | Hartree multipole sum: apparent total charge =   0.100002E+01
  Summing up the Hartree potential.
  Time summed over all CPUs for potential: real work        0.100 s, elapsed        0.101 s
  | RMS charge density error from multipole expansion :   0.428304E-03

  Integrating Hamiltonian matrix: batch-based integration.
  Time summed over all CPUs for integration: real work        0.173 s, elapsed        0.176 s

  Updating Kohn-Sham eigenvalues, eigenvectors, occupation numbers, and Fermi level.
  Solving generalized eigenproblem
  Updating Kohn-Sham eigenvalues and eigenfunctions.
  Solving real generalised eigenvalue problem by standard LAPACK (fast)
  Determining occupation numbers for Kohn-Sham eigenstates.
  | Chemical potential (Fermi level) in eV                 : -.18103079E+02
  | Error in electron count due to remaining E_F inaccuracy: -.94658503E-10
  | Maximum occupation number of highest empty state:  0.00E+00

  Highest occupied state (VBM) at    -24.99050759 eV
  | Occupation number:      2.00000000

  Lowest unoccupied state (CBM) at   -18.09831625 eV
  | Occupation number:      0.50061080

  Overall HOMO-LUMO gap:      6.89219134 eV.

  Total energy components:
  | Sum of eigenvalues            :         -89.52466135 Ha       -2436.08998234 eV
  | XC energy correction          :         -16.36968862 Ha        -445.44189129 eV
  | XC potential correction       :          21.03337360 Ha         572.34721633 eV
  | Free-atom electrostatic energy:         -71.89305466 Ha       -1956.30955312 eV
  | Hartree energy correction     :           6.97250684 Ha         189.73156455 eV
  | Entropy correction            :          -0.00016515 Ha          -0.00449404 eV
  | ---------------------------
  | Total energy                  :        -149.78152420 Ha       -4075.76264587 eV
  | Total energy, T -> 0          :        -149.78168935 Ha       -4075.76713991 eV  <-- do not rely on this value for anything but (periodic) metals
  | Electronic free energy        :        -149.78185450 Ha       -4075.77163394 eV

  Derived energy quantities:
  | Kinetic energy                :         149.14574129 Ha        4058.46211275 eV
  | Electrostatic energy          :        -282.55757686 Ha       -7688.78286733 eV
  | Energy correction for multipole
  | error in Hartree potential    :          -0.00032651 Ha          -0.00888483 eV
  | Sum of eigenvalues per atom                           :       -1218.04499117 eV
  | Total energy (T->0) per atom                          :       -2037.88356995 eV  <-- do not rely on this value for anything but (periodic) metals
  | Electronic free energy per atom                       :       -2037.88581697 eV

  Self-consistency convergence accuracy:
  | Change of charge density      :  0.1129E-02
  | Change of sum of eigenvalues  :  0.1270E+00 eV
  | Change of total energy        :  0.8033E-05 eV

  End self-consistency iteration #     8       :  max(cpu_time)    wall_clock(cpu1)
  | Time for this iteration                    :        0.111 s           0.111 s
  | Charge density update                      :        0.031 s           0.031 s
  | Density mixing                             :        0.003 s           0.003 s
  | Hartree multipole update                   :        0.004 s           0.004 s
  | Hartree multipole summation                :        0.026 s           0.026 s
  | Integration                                :        0.044 s           0.044 s
  | Solution of K.-S. eqns.                    :        0.001 s           0.002 s
  | Total energy evaluation                    :        0.001 s           0.000 s
------------------------------------------------------------

------------------------------------------------------------
          Begin self-consistency iteration #    9

  Date     :  20190722, Time     :  141626.544
------------------------------------------------------------
  Evaluating new KS density.
  Integration grid: deviation in total charge (<rho> - N_e) =  -9.453416E-11
  Pulay mixing of updated and previous charge densities.

  Evaluating partitioned Hartree potential by multipole expansion.
  | Analytical far-field extrapolation by fixed multipoles:
  | Hartree multipole sum: apparent total charge =   0.100002E+01
  Summing up the Hartree potential.
  Time summed over all CPUs for potential: real work        0.099 s, elapsed        0.100 s
  | RMS charge density error from multipole expansion :   0.428311E-03

  Integrating Hamiltonian matrix: batch-based integration.
  Time summed over all CPUs for integration: real work        0.172 s, elapsed        0.175 s

  Updating Kohn-Sham eigenvalues, eigenvectors, occupation numbers, and Fermi level.
  Solving generalized eigenproblem
  Updating Kohn-Sham eigenvalues and eigenfunctions.
  Solving real generalised eigenvalue problem by standard LAPACK (fast)
  Determining occupation numbers for Kohn-Sham eigenstates.
  | Chemical potential (Fermi level) in eV                 : -.18102964E+02
  | Error in electron count due to remaining E_F inaccuracy: -.66034289E-10
  | Maximum occupation number of highest empty state:  0.00E+00

  Highest occupied state (VBM) at    -24.99040020 eV
  | Occupation number:      2.00000000

  Lowest unoccupied state (CBM) at   -18.09819559 eV
  | Occupation number:      0.50010317

  Overall HOMO-LUMO gap:      6.89220461 eV.

  Total energy components:
  | Sum of eigenvalues            :         -89.52458731 Ha       -2436.08796741 eV
  | XC energy correction          :         -16.36969804 Ha        -445.44214754 eV
  | XC potential correction       :          21.03338606 Ha         572.34755538 eV
  | Free-atom electrostatic energy:         -71.89305466 Ha       -1956.30955312 eV
  | Hartree energy correction     :           6.97242975 Ha         189.72946685 eV
  | Entropy correction            :          -0.00016515 Ha          -0.00449404 eV
  | ---------------------------
  | Total energy                  :        -149.78152419 Ha       -4075.76264584 eV
  | Total energy, T -> 0          :        -149.78168935 Ha       -4075.76713988 eV  <-- do not rely on this value for anything but (periodic) metals
  | Electronic free energy        :        -149.78185450 Ha       -4075.77163391 eV

  Derived energy quantities:
  | Kinetic energy                :         149.14578373 Ha        4058.46326752 eV
  | Electrostatic energy          :        -282.55760988 Ha       -7688.78376582 eV
  | Energy correction for multipole
  | error in Hartree potential    :          -0.00032651 Ha          -0.00888489 eV
  | Sum of eigenvalues per atom                           :       -1218.04398371 eV
  | Total energy (T->0) per atom                          :       -2037.88356994 eV  <-- do not rely on this value for anything but (periodic) metals
  | Electronic free energy per atom                       :       -2037.88581696 eV

  Self-consistency convergence accuracy:
  | Change of charge density      :  0.2210E-03
  | Change of sum of eigenvalues  :  0.2015E-02 eV
  | Change of total energy        :  0.3218E-07 eV

  End self-consistency iteration #     9       :  max(cpu_time)    wall_clock(cpu1)
  | Time for this iteration                    :        0.110 s           0.110 s
  | Charge density update                      :        0.031 s           0.031 s
  | Density mixing                             :        0.003 s           0.003 s
  | Hartree multipole update                   :        0.004 s           0.004 s
  | Hartree multipole summation                :        0.026 s           0.026 s
  | Integration                                :        0.044 s           0.044 s
  | Solution of K.-S. eqns.                    :        0.001 s           0.001 s
  | Total energy evaluation                    :        0.000 s           0.001 s
------------------------------------------------------------

------------------------------------------------------------
          Begin self-consistency iteration #   10

  Date     :  20190722, Time     :  141626.655
------------------------------------------------------------
  Evaluating new KS density.
  Integration grid: deviation in total charge (<rho> - N_e) =  -6.613554E-11
  Pulay mixing of updated and previous charge densities.

  Evaluating partitioned Hartree potential by multipole expansion.
  | Analytical far-field extrapolation by fixed multipoles:
  | Hartree multipole sum: apparent total charge =   0.100001E+01
  Summing up the Hartree potential.
  Time summed over all CPUs for potential: real work        0.099 s, elapsed        0.100 s
  | RMS charge density error from multipole expansion :   0.428346E-03

  Integrating Hamiltonian matrix: batch-based integration.
  Time summed over all CPUs for integration: real work        0.171 s, elapsed        0.173 s

  Updating Kohn-Sham eigenvalues, eigenvectors, occupation numbers, and Fermi level.
  Solving generalized eigenproblem
  Updating Kohn-Sham eigenvalues and eigenfunctions.
  Solving real generalised eigenvalue problem by standard LAPACK (fast)
  Determining occupation numbers for Kohn-Sham eigenstates.
  | Chemical potential (Fermi level) in eV                 : -.18102138E+02
  | Error in electron count due to remaining E_F inaccuracy: -.75015549E-11
  | Maximum occupation number of highest empty state:  0.00E+00

  Highest occupied state (VBM) at    -24.98959167 eV
  | Occupation number:      2.00000000

  Lowest unoccupied state (CBM) at   -18.09737202 eV
  | Occupation number:      0.50027438

  Overall HOMO-LUMO gap:      6.89221965 eV.

  Total energy components:
  | Sum of eigenvalues            :         -89.52408311 Ha       -2436.07424761 eV
  | XC energy correction          :         -16.36975401 Ha        -445.44367055 eV
  | XC potential correction       :          21.03346006 Ha         572.34956899 eV
  | Free-atom electrostatic energy:         -71.89305466 Ha       -1956.30955312 eV
  | Hartree energy correction     :           6.97190753 Ha         189.71525656 eV
  | Entropy correction            :          -0.00016515 Ha          -0.00449404 eV
  | ---------------------------
  | Total energy                  :        -149.78152419 Ha       -4075.76264574 eV
  | Total energy, T -> 0          :        -149.78168934 Ha       -4075.76713978 eV  <-- do not rely on this value for anything but (periodic) metals
  | Electronic free energy        :        -149.78185450 Ha       -4075.77163382 eV

  Derived energy quantities:
  | Kinetic energy                :         149.14601186 Ha        4058.46947534 eV
  | Electrostatic energy          :        -282.55778204 Ha       -7688.78845052 eV
  | Energy correction for multipole
  | error in Hartree potential    :          -0.00032651 Ha          -0.00888492 eV
  | Sum of eigenvalues per atom                           :       -1218.03712381 eV
  | Total energy (T->0) per atom                          :       -2037.88356989 eV  <-- do not rely on this value for anything but (periodic) metals
  | Electronic free energy per atom                       :       -2037.88581691 eV

  Self-consistency convergence accuracy:
  | Change of charge density      :  0.7458E-04
  | Change of sum of eigenvalues  :  0.1372E-01 eV
  | Change of total energy        :  0.9859E-07 eV

  End self-consistency iteration #    10       :  max(cpu_time)    wall_clock(cpu1)
  | Time for this iteration                    :        0.109 s           0.110 s
  | Charge density update                      :        0.030 s           0.031 s
  | Density mixing                             :        0.003 s           0.003 s
  | Hartree multipole update                   :        0.005 s           0.004 s
  | Hartree multipole summation                :        0.026 s           0.026 s
  | Integration                                :        0.044 s           0.044 s
  | Solution of K.-S. eqns.                    :        0.001 s           0.001 s
  | Total energy evaluation                    :        0.000 s           0.001 s
------------------------------------------------------------

------------------------------------------------------------
          Begin self-consistency iteration #   11

  Date     :  20190722, Time     :  141626.766
------------------------------------------------------------
  Evaluating new KS density.
  Integration grid: deviation in total charge (<rho> - N_e) =  -7.496226E-12
  Pulay mixing of updated and previous charge densities.

  Evaluating partitioned Hartree potential by multipole expansion.
  | Analytical far-field extrapolation by fixed multipoles:
  | Hartree multipole sum: apparent total charge =   0.999993E+00
  Summing up the Hartree potential.
  Time summed over all CPUs for potential: real work        0.098 s, elapsed        0.099 s
  | RMS charge density error from multipole expansion :   0.428389E-03

  Integrating Hamiltonian matrix: batch-based integration.
  Time summed over all CPUs for integration: real work        0.173 s, elapsed        0.176 s

  Updating Kohn-Sham eigenvalues, eigenvectors, occupation numbers, and Fermi level.
  Solving generalized eigenproblem
  Updating Kohn-Sham eigenvalues and eigenfunctions.
  Solving real generalised eigenvalue problem by standard LAPACK (fast)
  Determining occupation numbers for Kohn-Sham eigenstates.
  | Chemical potential (Fermi level) in eV                 : -.18101274E+02
  | Error in electron count due to remaining E_F inaccuracy: -.14832580E-11
  | Maximum occupation number of highest empty state:  0.00E+00

  Highest occupied state (VBM) at    -24.98875062 eV
  | Occupation number:      2.00000000

  Lowest unoccupied state (CBM) at   -18.09650420 eV
  | Occupation number:      0.50000194

  Overall HOMO-LUMO gap:      6.89224642 eV.

  Total energy components:
  | Sum of eigenvalues            :         -89.52355820 Ha       -2436.05996400 eV
  | XC energy correction          :         -16.36981359 Ha        -445.44529188 eV
  | XC potential correction       :          21.03353894 Ha         572.35171544 eV
  | Free-atom electrostatic energy:         -71.89305466 Ha       -1956.30955312 eV
  | Hartree energy correction     :           6.97136332 Ha         189.70044784 eV
  | Entropy correction            :          -0.00016515 Ha          -0.00449404 eV
  | ---------------------------
  | Total energy                  :        -149.78152419 Ha       -4075.76264571 eV
  | Total energy, T -> 0          :        -149.78168934 Ha       -4075.76713975 eV  <-- do not rely on this value for anything but (periodic) metals
  | Electronic free energy        :        -149.78185450 Ha       -4075.77163379 eV

  Derived energy quantities:
  | Kinetic energy                :         149.14624213 Ha        4058.47574135 eV
  | Electrostatic energy          :        -282.55795273 Ha       -7688.79309518 eV
  | Energy correction for multipole
  | error in Hartree potential    :          -0.00032651 Ha          -0.00888473 eV
  | Sum of eigenvalues per atom                           :       -1218.02998200 eV
  | Total energy (T->0) per atom                          :       -2037.88356987 eV  <-- do not rely on this value for anything but (periodic) metals
  | Electronic free energy per atom                       :       -2037.88581689 eV

  Self-consistency convergence accuracy:
  | Change of charge density      :  0.1001E-03
  | Change of sum of eigenvalues  :  0.1428E-01 eV
  | Change of total energy        :  0.2891E-07 eV

  End self-consistency iteration #    11       :  max(cpu_time)    wall_clock(cpu1)
  | Time for this iteration                    :        0.110 s           0.109 s
  | Charge density update                      :        0.030 s           0.030 s
  | Density mixing                             :        0.003 s           0.003 s
  | Hartree multipole update                   :        0.005 s           0.004 s
  | Hartree multipole summation                :        0.025 s           0.026 s
  | Integration                                :        0.045 s           0.044 s
  | Solution of K.-S. eqns.                    :        0.001 s           0.001 s
  | Total energy evaluation                    :        0.000 s           0.001 s
------------------------------------------------------------

------------------------------------------------------------
          Begin self-consistency iteration #   12

  Date     :  20190722, Time     :  141626.878
------------------------------------------------------------
  Evaluating new KS density.
  Integration grid: deviation in total charge (<rho> - N_e) =  -1.508127E-12
  Pulay mixing of updated and previous charge densities.

  Evaluating partitioned Hartree potential by multipole expansion.
  | Analytical far-field extrapolation by fixed multipoles:
  | Hartree multipole sum: apparent total charge =   0.999994E+00
  Summing up the Hartree potential.
  Time summed over all CPUs for potential: real work        0.100 s, elapsed        0.100 s
  | RMS charge density error from multipole expansion :   0.428390E-03

  Integrating Hamiltonian matrix: batch-based integration.
  Time summed over all CPUs for integration: real work        0.174 s, elapsed        0.177 s

  Updating Kohn-Sham eigenvalues, eigenvectors, occupation numbers, and Fermi level.
  Solving generalized eigenproblem
  Updating Kohn-Sham eigenvalues and eigenfunctions.
  Solving real generalised eigenvalue problem by standard LAPACK (fast)
  Determining occupation numbers for Kohn-Sham eigenstates.
  | Chemical potential (Fermi level) in eV                 : -.18101276E+02
  | Error in electron count due to remaining E_F inaccuracy: -.18065549E-11
  | Maximum occupation number of highest empty state:  0.00E+00

  Highest occupied state (VBM) at    -24.98875378 eV
  | Occupation number:      2.00000000

  Lowest unoccupied state (CBM) at   -18.09650711 eV
  | Occupation number:      0.50000608

  Overall HOMO-LUMO gap:      6.89224667 eV.

  Total energy components:
[...]
  | Density mixing                             :        0.002 s           0.002 s
  | Hartree multipole update                   :        0.004 s           0.004 s
  | Hartree multipole summation                :        0.066 s           0.066 s
  | Integration                                :        0.044 s           0.044 s
  | Solution of K.-S. eqns.                    :        0.001 s           0.001 s
  | Total energy evaluation                    :        0.001 s           0.001 s
------------------------------------------------------------

------------------------------------------------------------
          Begin self-consistency iteration #    6

  Date     :  20190722, Time     :  141634.116
------------------------------------------------------------
  Evaluating new KS density and force components.
  Integration grid: deviation in total charge (<rho> - N_e) =   4.973799E-14
  Pulay mixing of updated and previous charge densities.

  Evaluating partitioned Hartree potential by multipole expansion.
  | Analytical far-field extrapolation by fixed multipoles:
  | Hartree multipole sum: apparent total charge =   0.999999E+00
  Summing up the Hartree potential.
  Time summed over all CPUs for potential: real work        0.259 s, elapsed        0.261 s
  | RMS charge density error from multipole expansion :   0.495335E-03

  Integrating Hamiltonian matrix: batch-based integration.
  Time summed over all CPUs for integration: real work        0.171 s, elapsed        0.173 s

  Updating Kohn-Sham eigenvalues, eigenvectors, occupation numbers, and Fermi level.
  Solving generalized eigenproblem
  Updating Kohn-Sham eigenvalues and eigenfunctions.
  Solving real generalised eigenvalue problem by standard LAPACK (fast)
  Determining occupation numbers for Kohn-Sham eigenstates.
  | Chemical potential (Fermi level) in eV                 : -.17441282E+02
  | Error in electron count due to remaining E_F inaccuracy: 0.10480505E-12
  | Maximum occupation number of highest empty state:  0.00E+00

  Highest occupied state (VBM) at    -25.61030734 eV
  | Occupation number:      2.00000000

  Lowest unoccupied state (CBM) at   -17.43651299 eV
  | Occupation number:      0.50000080

  Overall HOMO-LUMO gap:      8.17379435 eV.

  Total energy components:
  | Sum of eigenvalues            :         -89.79638919 Ha       -2443.48407290 eV
  | XC energy correction          :         -16.45369473 Ha        -447.72781363 eV
  | XC potential correction       :          21.14564628 Ha         575.40231142 eV
  | Free-atom electrostatic energy:         -71.50993976 Ha       -1945.88446641 eV
  | Hartree energy correction     :           6.82129638 Ha         185.61691869 eV
  | Entropy correction            :          -0.00016515 Ha          -0.00449404 eV
  | ---------------------------
  | Total energy                  :        -149.79308101 Ha       -4076.07712282 eV
  | Total energy, T -> 0          :        -149.79324616 Ha       -4076.08161686 eV  <-- do not rely on this value for anything but (periodic) metals
  | Electronic free energy        :        -149.79341132 Ha       -4076.08611090 eV

  Derived energy quantities:
  | Kinetic energy                :         149.45659287 Ha        4066.92081457 eV
  | Electrostatic energy          :        -282.79597915 Ha       -7695.27012375 eV
  | Energy correction for multipole
  | error in Hartree potential    :          -0.00054343 Ha          -0.01478759 eV
  | Sum of eigenvalues per atom                           :       -1221.74203645 eV
  | Total energy (T->0) per atom                          :       -2038.04080843 eV  <-- do not rely on this value for anything but (periodic) metals
  | Electronic free energy per atom                       :       -2038.04305545 eV

  atomic forces [eV/Ang]:
  -----------------------
  atom #    1
   Hellmann-Feynman              :  0.530904E-11  0.220393E-10 -0.155924E+02
   Ionic forces                  :  0.000000E+00  0.000000E+00  0.000000E+00
   Multipole                     :  0.615780E-14  0.187575E-12 -0.593845E-01
   Pulay + GGA                   : -0.313995E-12 -0.202955E-11  0.156517E+02
   ----------------------------------------------------------------
   Total forces(   1)            :  0.500120E-11  0.201973E-10 -0.857951E-04
  atom #    2
   Hellmann-Feynman              : -0.569302E-10  0.177614E-10  0.155924E+02
   Ionic forces                  :  0.000000E+00  0.000000E+00  0.000000E+00
   Multipole                     : -0.109918E-12 -0.157084E-12  0.593845E-01
   Pulay + GGA                   :  0.128196E-10 -0.699923E-11 -0.156517E+02
   ----------------------------------------------------------------
   Total forces(   2)            : -0.442205E-10  0.106051E-10  0.855480E-04


  Self-consistency convergence accuracy:
  | Change of charge density      :  0.1511E-06
  | Change of sum of eigenvalues  : -0.1258E-04 eV
  | Change of total energy        : -0.3094E-10 eV
  | Change of forces              :  0.4036E-04 eV/A

  End self-consistency iteration #     6       :  max(cpu_time)    wall_clock(cpu1)
  | Time for this iteration                    :        0.222 s           0.222 s
  | Charge density & force component update    :        0.104 s           0.103 s
  | Density mixing                             :        0.002 s           0.003 s
  | Hartree multipole update                   :        0.005 s           0.004 s
  | Hartree multipole summation                :        0.066 s           0.065 s
  | Integration                                :        0.044 s           0.044 s
  | Solution of K.-S. eqns.                    :        0.001 s           0.001 s
  | Total energy evaluation                    :        0.001 s           0.002 s
------------------------------------------------------------

------------------------------------------------------------
          Begin self-consistency iteration #    7

  Date     :  20190722, Time     :  141634.339
------------------------------------------------------------
  Evaluating new KS density and force components.
  Integration grid: deviation in total charge (<rho> - N_e) =   3.197442E-14
  Pulay mixing of updated and previous charge densities.

  Evaluating partitioned Hartree potential by multipole expansion.
  | Analytical far-field extrapolation by fixed multipoles:
  | Hartree multipole sum: apparent total charge =   0.999999E+00
  Summing up the Hartree potential.
  Time summed over all CPUs for potential: real work        0.267 s, elapsed        0.271 s
  | RMS charge density error from multipole expansion :   0.495335E-03

  Integrating Hamiltonian matrix: batch-based integration.
  Time summed over all CPUs for integration: real work        0.175 s, elapsed        0.177 s

  Updating Kohn-Sham eigenvalues, eigenvectors, occupation numbers, and Fermi level.
  Solving generalized eigenproblem
  Updating Kohn-Sham eigenvalues and eigenfunctions.
  Solving real generalised eigenvalue problem by standard LAPACK (fast)
  Determining occupation numbers for Kohn-Sham eigenstates.
  | Chemical potential (Fermi level) in eV                 : -.17441282E+02
  | Error in electron count due to remaining E_F inaccuracy: -.12434498E-13
  | Maximum occupation number of highest empty state:  0.00E+00

  Highest occupied state (VBM) at    -25.61030735 eV
  | Occupation number:      2.00000000

  Lowest unoccupied state (CBM) at   -17.43651298 eV
  | Occupation number:      0.50000014

  Overall HOMO-LUMO gap:      8.17379437 eV.

  Total energy components:
  | Sum of eigenvalues            :         -89.79638919 Ha       -2443.48407293 eV
  | XC energy correction          :         -16.45369473 Ha        -447.72781362 eV
  | XC potential correction       :          21.14564628 Ha         575.40231141 eV
  | Free-atom electrostatic energy:         -71.50993976 Ha       -1945.88446641 eV
  | Hartree energy correction     :           6.82129639 Ha         185.61691872 eV
  | Entropy correction            :          -0.00016515 Ha          -0.00449404 eV
  | ---------------------------
  | Total energy                  :        -149.79308101 Ha       -4076.07712282 eV
  | Total energy, T -> 0          :        -149.79324616 Ha       -4076.08161686 eV  <-- do not rely on this value for anything but (periodic) metals
  | Electronic free energy        :        -149.79341132 Ha       -4076.08611090 eV

  Derived energy quantities:
  | Kinetic energy                :         149.45659286 Ha        4066.92081438 eV
  | Electrostatic energy          :        -282.79597915 Ha       -7695.27012358 eV
  | Energy correction for multipole
  | error in Hartree potential    :          -0.00054343 Ha          -0.01478759 eV
  | Sum of eigenvalues per atom                           :       -1221.74203646 eV
  | Total energy (T->0) per atom                          :       -2038.04080843 eV  <-- do not rely on this value for anything but (periodic) metals
  | Electronic free energy per atom                       :       -2038.04305545 eV

  atomic forces [eV/Ang]:
  -----------------------
  atom #    1
   Hellmann-Feynman              :  0.506194E-11  0.216910E-10 -0.155924E+02
   Ionic forces                  :  0.000000E+00  0.000000E+00  0.000000E+00
   Multipole                     :  0.163757E-13  0.115295E-12 -0.593845E-01
   Pulay + GGA                   : -0.456720E-12 -0.143581E-11  0.156517E+02
   ----------------------------------------------------------------
   Total forces(   1)            :  0.462159E-11  0.203705E-10 -0.855985E-04
  atom #    2
   Hellmann-Feynman              : -0.567134E-10  0.180983E-10  0.155924E+02
   Ionic forces                  :  0.000000E+00  0.000000E+00  0.000000E+00
   Multipole                     : -0.951086E-13 -0.907934E-13  0.593845E-01
   Pulay + GGA                   :  0.103675E-10 -0.454722E-11 -0.156517E+02
   ----------------------------------------------------------------
   Total forces(   2)            : -0.464410E-10  0.134603E-10  0.855768E-04


  Self-consistency convergence accuracy:
  | Change of charge density      :  0.2853E-06
  | Change of sum of eigenvalues  : -0.2740E-07 eV
  | Change of total energy        :  0.1547E-11 eV
  | Change of forces              :  0.8203E-06 eV/A

  Writing Kohn-Sham eigenvalues.

  State    Occupation    Eigenvalue [Ha]    Eigenvalue [eV]
      1       2.00000         -19.412611         -528.24401
      2       2.00000         -19.412392         -528.23807
      3       2.00000          -1.743894          -47.45377
      4       2.00000          -1.151969          -31.34668
      5       2.00000          -0.957888          -26.06547
      6       2.00000          -0.957888          -26.06547
      7       2.00000          -0.941161          -25.61031
      8       0.50000          -0.640780          -17.43651
      9       0.50000          -0.640780          -17.43651
     10       0.00000          -0.181161           -4.92964
     11       0.00000          -0.160859           -4.37719
     12       0.00000          -0.115282           -3.13698
     13       0.00000          -0.115282           -3.13698
     14       0.00000          -0.061530           -1.67430

  Highest occupied state (VBM) at    -25.61030735 eV
  | Occupation number:      2.00000000

  Lowest unoccupied state (CBM) at   -17.43651298 eV
  | Occupation number:      0.50000014

  Overall HOMO-LUMO gap:      8.17379437 eV.

  Self-consistency cycle converged.

  End self-consistency iteration #     7       :  max(cpu_time)    wall_clock(cpu1)
  | Time for this iteration                    :        0.234 s           0.235 s
  | Charge density & force component update    :        0.105 s           0.104 s
  | Density mixing                             :        0.003 s           0.003 s
  | Hartree multipole update                   :        0.004 s           0.004 s
  | Hartree multipole summation                :        0.069 s           0.070 s
  | Integration                                :        0.046 s           0.045 s
  | Solution of K.-S. eqns.                    :        0.005 s           0.006 s
  | Total energy evaluation                    :        0.002 s           0.002 s
------------------------------------------------------------
  Writing cluster restart information to file restart
  Removing unitary transformations (pure translations, rotations) from forces on atoms.
  Atomic forces before filtering:
  | Net force on center of mass :  -0.418194E-10  0.338308E-10 -0.216948E-07 eV/A
  | Net torque on center of mass:   0.387932E-11 -0.286661E-10  0.104844E-43 eV
  Atomic forces after filtering:
  | Net force on center of mass :   0.324519E-27  0.103846E-25  0.000000E+00 eV/A
  | Net torque on center of mass:   0.291491E-26 -0.127527E-26  0.466424E-60 eV

  Energy and forces in a compact form:
  | Total energy uncorrected      :         -0.407607712281852E+04 eV
  | Total energy corrected        :         -0.407608161685780E+04 eV  <-- do not rely on this value for anything but (periodic) metals
  | Electronic free energy        :         -0.407608611089709E+04 eV
  Total atomic forces (unitary forces cleaned) [eV/Ang]:
  |   1          0.129807539725224E-26          0.778845238351347E-26         -0.855876918151479E-04
  |   2         -0.973556547939183E-27          0.259615079450449E-26          0.855876918151479E-04

  ------------------------------------ 
  Start decomposition of the XC Energy 
  ------------------------------------ 
  Hartree-Fock part   :          0.000000000 Ha              0.000000000 eV
  ------------------------------------ 
  X Energy            :        -15.950253762 Ha           -434.028487979 eV
  C Energy GGA        :         -0.503440964 Ha            -13.699325639 eV
  Total XC Energy     :        -16.453694725 Ha           -447.727813618 eV
  LDA X and C from self-consistent density 
  X Energy LDA        :        -14.465850589 Ha           -393.635822503 eV
  C Energy LDA        :         -1.061660529 Ha            -28.889252869 eV
  ------------------------------------ 
  End decomposition of the XC Energy 
  ------------------------------------ 
  Relaxation / MD: End force evaluation.       :  max(cpu_time)    wall_clock(cpu1)
  | Time for this force evaluation             :        1.331 s           1.353 s

------------------------------------------------------------
  Geometry optimization: Attempting to predict improved coordinates.

  Removing unitary transformations (pure translations, rotations) from forces on atoms.
  Atomic forces before filtering:
  | Net force on center of mass :   0.324519E-27  0.103846E-25  0.000000E+00 eV/A
  | Net torque on center of mass:   0.291491E-26 -0.127527E-26  0.466424E-60 eV
  Atomic forces after filtering:
  | Net force on center of mass :   0.360288E-42  0.230585E-41  0.000000E+00 eV/A
  | Net torque on center of mass:   0.152169E-41 -0.283168E-42  0.103567E-75 eV
  Net remaining forces (excluding translations, rotations) in present geometry:
  Maximum force component is  0.855877E-04 eV/A.
  Present geometry is converged.

------------------------------------------------------------
  Final atomic structure:
                         x [A]             y [A]             z [A]
            atom        -0.00000000       -0.00000000        0.04235921  O
            atom         0.00000000        0.00000000        1.16514079  O
------------------------------------------------------------

------------------------------------------------------------------------------
  Final output of selected total energy values:

  The following output summarizes some interesting total energy values
  at the end of a run (AFTER all relaxation, molecular dynamics, etc.).

  | Total energy of the DFT / Hartree-Fock s.c.f. calculation      :          -4076.077122819 eV
  | Final zero-broadening corrected energy (caution - metals only) :          -4076.081616858 eV
  | For reference only, the value of 1 Hartree used in FHI-aims is :             27.211384500 eV

  Before relying on these values, please be sure to understand exactly which
  total energy value is referred to by a given number. Different objects may
  all carry the same name 'total energy'. Definitions:

  Total energy of the DFT / Hartree-Fock s.c.f. calculation:
  | Note that this energy does not include ANY quantities calculated after the
  | s.c.f. cycle, in particular not ANY RPA, MP2, etc. many-body perturbation terms.

  Final zero-broadening corrected energy:
  | For metallic systems only, a broadening of the occupation numbers at the Fermi
  | level can be extrapolated back to zero broadening by an electron-gas inspired
  | formula. For all systems that are not real metals, this value can be
  | meaningless and should be avoided.

------------------------------------------------------------------------------
  Methods described in the following list of references were used in this FHI-aims run.
  If you publish the results, please make sure to cite these reference if they apply.
  FHI-aims is an academic code, and for our developers (often, Ph.D. students
  and postdocs), scientific credit in the community is essential.
  Thank you for helping us!

  For any use of FHI-aims, please cite:

    Volker Blum, Ralf Gehrke, Felix Hanke, Paula Havu, Ville Havu,
    Xinguo Ren, Karsten Reuter, and Matthias Scheffler
    'Ab initio molecular simulations with numeric atom-centered orbitals'
    Computer Physics Communications 180, 2175-2196 (2009)
    http://dx.doi.org/10.1016/j.cpc.2009.06.022


  For the real-space grid partitioning and parallelization used in this calculation, please cite:

    Ville Havu, Volker Blum, Paula Havu, and Matthias Scheffler,
    'Efficient O(N) integration for all-electron electronic structure calculation'
    'using numerically tabulated basis functions'
    Journal of Computational Physics 228, 8367-8379 (2009).
    http://dx.doi.org/10.1016/j.jcp.2009.08.008

  Of course, there are many other important community references, e.g., those cited in the
  above references. Our list is limited to references that describe implementations in the
  FHI-aims code. The reason is purely practical (length of this list) - please credit others as well.

------------------------------------------------------------
          Leaving FHI-aims.
          Date     :  20190722, Time     :  141634.611

          Computational steps:
          | Number of self-consistency cycles          :           60
          | Number of relaxation steps                 :            5

          Detailed time accounting                     :  max(cpu_time)    wall_clock(cpu1)
          | Total time                                 :        9.372 s           9.460 s
          | Preparation time                           :        0.148 s           0.162 s
          | Grid partitioning                          :        0.129 s           0.120 s
          | Preloading free-atom quantities on grid    :        0.058 s           0.056 s
          | Free-atom superposition energy             :        0.054 s           0.051 s
          | Total time for integrations                :        2.829 s           2.817 s
          | Total time for solution of K.-S. equations :        0.123 s           0.138 s
          | Total time for EV reorthonormalization     :        0.001 s           0.000 s
          | Total time for density & force components  :        2.894 s           2.875 s
          | Total time for mixing                      :        0.116 s           0.130 s
          | Total time for Hartree multipole update    :        0.274 s           0.246 s
          | Total time for Hartree multipole sum       :        2.430 s           2.422 s
          | Total time for total energy evaluation     :        0.031 s           0.064 s

          Have a nice day.
------------------------------------------------------------
