  MPI-parallelism will be employed.
------------------------------------------------------------
          Invoking FHI-aims ...
          Version 160328_3
          Compiled on 2019/06/10 at 14:55:49 on host taito-login3.csc.fi.

          When using FHI-aims, please cite the following reference:

          Volker Blum, Ralf Gehrke, Felix Hanke, Paula Havu,
          Ville Havu, Xinguo Ren, Karsten Reuter, and Matthias Scheffler,
          'Ab Initio Molecular Simulations with Numeric Atom-Centered Orbitals',
          Computer Physics Communications 180, 2175-2196 (2009)

          For any questions about FHI-aims, please visit the aimsclub website
          with its forums and wiki. Contributions to both the forums and the
          wiki are warmly encouraged - they are for you, and everyone is welcome there.

------------------------------------------------------------

  Date     :  20190722, Time     :  142026.555
  Time zero on CPU 1             :   0.629890000000000E-01  s.
  Internal wall clock time zero  :           333037226.555  s.

  Using        4 parallel tasks.
  Task        0 on host c932 reporting.
  Task        1 on host c932 reporting.
  Task        2 on host c932 reporting.
  Task        3 on host c932 reporting.

  Performing system and environment tests:
  | Environment variable OMP_NUM_THREADS correctly set to 1.
  | Maximum stacksize for task 0: unlimited
  | Maximum stacksize for task 1: unlimited
  | Maximum stacksize for task 2: unlimited
  | Maximum stacksize for task 3: unlimited
  | Current stacksize for task 0: 1024 [Mb]
  | Current stacksize for task 1: 1024 [Mb]
  | Current stacksize for task 2: 1024 [Mb]
  | Current stacksize for task 3: 1024 [Mb]
  | Checking for scalapack...
  | No scalapack compiled in.

  Obtaining array dimensions for all initial allocations:
  
  -----------------------------------------------------------------------
  Parsing control.in (first pass over file, find array dimensions only).
  The contents of control.in will be repeated verbatim below
  unless switched off by setting 'verbatim_writeout .false.' .
  in the first line of control.in .
  -----------------------------------------------------------------------
  
    #  Physical model settings
    #
  
    xc                            pbe
    charge                        1.0
    relativistic                  none
  #  default_initial_moment        0.0
    spin                          none
  #  vdw_correction_hirshfeld
  
    #  SCF convergence settings
    #
  
    sc_accuracy_rho               1E-4
    sc_accuracy_eev               1E-2
    sc_accuracy_etot              1E-8
    sc_iter_limit                 100
  
    #  Occupation settings
    #
  
    restart                       restart
    force_occupation_projector      9 1 0.5 8 9 # ion 0
    force_occupation_projector      8 1 0.5 8 9 # ion 0
  
    #  Relaxation
    #
  
    relax_geometry                bfgs    1.e-4
  
  
  ################################################################################
  #
  #  FHI-aims code project
  #  VB, Fritz-Haber Institut, 2007
  #
  #  Suggested "safe" defaults for O atom (to be pasted into control.in file)
  #
  ################################################################################
    species        O
  #     global species definitions
      nucleus             8
      mass                15.9994
  #
      l_hartree           8
  #
      cut_pot             4.0  2.0  1.0
      basis_dep_cutoff    0.d0
  #
      radial_base         36 7.0
      radial_multiplier   2
       angular_grids specified
        division   0.4087  110
        division   0.5181  194
        division   0.6184  302
        division   0.7315  434
        division   0.7934  590
  #      division   0.9656  770
  #      division   1.4041  974
  #      outer_grid 974
        outer_grid 590
  ################################################################################
  #
  #  Definition of "minimal" basis
  #
  ################################################################################
  #     valence basis states
      valence      2  s   2.
      valence      2  p   4.
  #     ion occupancy
      ion_occ      2  s   1.
      ion_occ      2  p   3.
  ################################################################################
  #
  #  Suggested additional basis functions. For production calculations,
  #  uncomment them one after another (the most important basis functions are
  #  listed first).
  #
  #  Constructed for dimers: 1.0 A, 1.208 A, 1.5 A, 2.0 A, 3.0 A
  #
  ################################################################################
  #  "First tier" - improvements: -699.05 meV to -159.38 meV
       hydro 2 p 1.8
       hydro 3 d 7.6
       hydro 3 s 6.4
  #  "Second tier" - improvements: -49.91 meV to -5.39 meV
       hydro 4 f 11.6
       hydro 3 p 6.2
       hydro 3 d 5.6
       hydro 5 g 17.6
       hydro 1 s 0.75
  #  "Third tier" - improvements: -2.83 meV to -0.50 meV
  #     ionic 2 p auto
  #     hydro 4 f 10.8
  #     hydro 4 d 4.7
  #     hydro 2 s 6.8
  #  "Fourth tier" - improvements: -0.40 meV to -0.12 meV
  #     hydro 3 p 5
  #     hydro 3 s 3.3
  #     hydro 5 g 15.6
  #     hydro 4 f 17.6
  #     hydro 4 d 14
  # Further basis functions - -0.08 meV and below
  #     hydro 3 s 2.1
  #     hydro 4 d 11.6
  #     hydro 3 p 16
  #     hydro 2 s 17.2
  
  -----------------------------------------------------------------------
  Completed first pass over input file control.in .
  -----------------------------------------------------------------------
  
  
  -----------------------------------------------------------------------
  Parsing geometry.in (first pass over file, find array dimensions only).
  The contents of geometry.in will be repeated verbatim below
  unless switched off by setting 'verbatim_writeout .false.' .
  in the first line of geometry.in .
  -----------------------------------------------------------------------
  
  atom 0.0 0.0 0.0 O
  atom 0.0 0.0 1.2075 O
  
  -----------------------------------------------------------------------
  Completed first pass over input file geometry.in .
  -----------------------------------------------------------------------
  

  Basic array size parameters:
  | Number of species                 :        1
  | Number of atoms                   :        2
  | Max. basis fn. angular momentum   :        4
  | Max. atomic/ionic basis occupied n:        2
  | Max. number of basis fn. types    :        2
  | Max. radial fns per species/type  :        8
  | Max. logarithmic grid size        :     1301
  | Max. radial integration grid size :       73
  | Max. angular integration grid size:      590
  | Max. angular grid division number :        8
  | Radial grid for Hartree potential :     1301
  | Number of spin channels           :        1

------------------------------------------------------------
          Reading file control.in.
------------------------------------------------------------
  XC: Using PBE gradient-corrected functionals.
  Charged system requested: Charge =   0.100000E+01.
  Non-relativistic treatment of kinetic energy.
  Spin treatment: No spin polarisation.
  Convergence accuracy of self-consistent charge density:  0.1000E-03
  Convergence accuracy of sum of eigenvalues:  0.1000E-01
  Convergence accuracy of total energy:  0.1000E-07
  Maximum number of s.-c. iterations  :   100
  Restart file specified as : restart
  | Reading information from existing file.
  Occupation forced using projector   1        9   0.50000000
  Occupation forced using projector   1        8   0.50000000
  Geometry relaxation: Modified BFGS - TRM (trust radius method, i.e., trusted quadratic extrapolation).
  Convergence accuracy for geometry relaxation: Maximum force <   0.100000E-03 eV/A.
 
  Reading configuration options for species O                   .
  | Found nuclear charge :   8.0000
  | Found atomic mass :    15.9994000000000      amu
  | Found l_max for Hartree potential  :   8
  | Found cutoff potl. onset [A], width [A], scale factor :    4.00000    2.00000    1.00000
  | Threshold for basis-dependent cutoff potential is   0.000000E+00
  | Found data for basic radial integration grid :    36 points, outermost radius =    7.000 A
  | Found multiplier for basic radial grid :   2
  | Found angular grid specification: user-specified.
  | Specified grid contains     6 separate shells.
  | Check grid settings after all constraints further below.
  | Found free-atom valence shell :  2 s   2.000
  | Found free-atom valence shell :  2 p   4.000
  | No ionic wave fns used. Skipping ion_occ.
  | No ionic wave fns used. Skipping ion_occ.
  | Found hydrogenic basis function :  2 p   1.800
  | Found hydrogenic basis function :  3 d   7.600
  | Found hydrogenic basis function :  3 s   6.400
  | Found hydrogenic basis function :  4 f  11.600
  | Found hydrogenic basis function :  3 p   6.200
  | Found hydrogenic basis function :  3 d   5.600
  | Found hydrogenic basis function :  5 g  17.600
  | Found hydrogenic basis function :  1 s   0.750
  Species O                   : Missing cutoff potential type.
  Defaulting to exp(1/x)/(1-x)^2 type cutoff potential.
  Species O : No 'logarithmic' tag. Using default grid for free atom:
  | Default logarithmic grid data [bohr] : 0.1000E-03 0.1000E+03 0.1012E+01
  Species O : On-site basis accuracy parameter (for Gram-Schmidt orthonormalisation) not specified.
  Using default value basis_acc =  0.1000000E-03.
  Species O                   : Using default innermost maximum threshold i_radial=  2 for radial functions.
  Species O                   : Default cutoff onset for free atom density etc. : 0.40000000E+01 AA.
  Species O                   : Basic radial grid will be enhanced according to radial_multiplier =   2, to contain    73 grid points.
 
  Finished reading input file 'control.in'. Consistency checks are next.
 
  Target number of points in a grid batch is not set. Defaulting to  100
  Method for grid partitioning is not set. Defaulting to parallel hash+maxmin partitioning.
  Batch size limit is not set. Defaulting to    200
  By default, will store active basis functions for each batch.
  If in need of memory, prune_basis_once .false. can be used to disable this option.
  communication_type for Hartree potential was not specified.
  Defaulting to calc_hartree .
  Defaulting to Pulay charge density mixer.
  Pulay mixer: Number of relevant iterations not set.
  Defaulting to    8 iterations.
  Pulay mixer: Number of initial linear mixing iterations not set.
  Defaulting to    0 iterations.
  Work space size for distributed Hartree potential not set.
  Defaulting to   0.200000E+03 MB.
  Mixing parameter for charge density mixing has not been set.
  Using default: charge_mix_param =     0.2000.
  Algorithm-dependent basis array size parameters:
  | n_max_pulay                         :        8
  No maximum number of relaxation steps, defaulting to     1000
  Default initial Hessian is Lindh matrix (thres = 15.00) plus  0.200000E+01 eV/A^2 times unity.
  No maximum energy tolerance for TRM/BFGS moves, defaulting to   0.200000E-03
  No harmonic length scale. Defaulting to   0.250000E-01 A.
  No trust radius initializer. Defaulting to   0.200000E+00 A.
  Force calculation: scf convergence accuracy of forces not set.
  Required force accuracy for relaxation overrides required scf force convergence accuracy.
  Defaulting to  0.2000E-04 eV/A.
  Handling of forces: Unphysical translation and rotation will be removed from forces.
  No accuracy limit for integral partition fn. given. Defaulting to  0.1000E-14.
  No threshold value for u(r) in integrations given. Defaulting to  0.1000E-05.
  No occupation type (smearing scheme) given. Defaulting to Gaussian broadening, width =  0.1000E-01 eV.
  No accuracy for occupation numbers given. Defaulting to  0.1000E-07.
  No threshold value for occupation numbers given. Defaulting to  0.0000E+00.
  No accuracy for fermi level given. Defaulting to  0.1000E-19.
  Maximum # of iterations to find E_F not set. Defaulting to  200.
  Preferred method for the eigenvalue solver ('KS_method') not specified in 'control.in'.
  Calling blacs routine to test compilation state
  The best choice would be 'elpa', but your version of FHI-aims is compiled without scalapack support.
  Defaulting to 'lapack_fast' instead (serial solution, time will not improve with more CPUs).
  Will not use alltoall communication since running on < 1024 CPUs.
  Threshold for basis singularities not set.
  Default threshold for basis singularities:  0.1000E-04
  partition_type (choice of integration weights) for integrals was not specified.
  | Using a version of the partition function of Stratmann and coworkers ('stratmann_smoother').
  | At each grid point, the set of atoms used to build the partition table is smoothly restricted to
  | only those atoms whose free-atom density would be non-zero at that grid point.
  Partitioning for Hartree potential was not defined. Using partition_type for integrals.
  | Adjusted default value of keyword multip_moments_threshold to:       0.10000000E-11
  | This value may affect high angular momentum components of the Hartree potential in periodic systems.
  No q(lm)/r^(l+1) cutoff set for long-range Hartree potential.
  | Using default value of  0.100000E-09 .
  | Verify using the multipole_threshold keyword.
  Defaulting to new monopole extrapolation.
  Density update method: automatic selection selected.
  Geometry relaxation: A file "geometry.in.next_step" is written out by default after each step.
  | This file contains the geometry of the current relaxation step as well as
  | the current Hessian matrix needed to restart the relaxation algorithm.
  | If you do not want part or all of this information, use the keywords
  | "write_restart_geometry" or "hessian_to_restart_geometry" to switch the output off.
------------------------------------------------------------


------------------------------------------------------------
          Reading geometry description geometry.in.
------------------------------------------------------------
 * Warning: Initial charge and total charge of the system are inconsistent.
 * Selected charge in control.in:     1.0000* Sum of initial charges in geometry.in:     0.0000
  Input structure read successfully.
  The structure contains        2 atoms,  and a total of         15.000 electrons.

  Input geometry:
  | No unit cell requested.
  | Atomic structure:
  |       Atom                x [A]            y [A]            z [A]
  |    1: Species O              0.000000         0.000000         0.000000
  |    2: Species O              0.000000         0.000000         1.207500
  |

  | The smallest distance between any two atoms is         1.20750000 AA.
  |
  | The first atom of this pair is atom number                      1 .
  | The second atom of this pair is atom number                     2 .

  Number of empty states per atom not set in control.in - providing a guess from actual geometry.
  | Total number of empty states used during s.c.f. cycle:        6
  If you use a very high smearing, use empty_states (per atom!) in control.in to increase this value.

  Structure-dependent array size parameters: 
  | Maximum number of distinct radial functions  :       11
  | Maximum number of basis functions            :       78
  | Number of Kohn-Sham states (occupied + empty):       14
------------------------------------------------------------

------------------------------------------------------------
          Preparing all fixed parts of the calculation.
------------------------------------------------------------
  Determining machine precision:
    2.225073858507201E-308
  Setting up grids for atomic and cluster calculations.

  Creating wave function, potential, and density for free atoms.

  Species: O

  List of occupied orbitals and eigenvalues:
    n    l              occ      energy [Ha]    energy [eV]
    1    0           2.0000       -18.898576      -514.2564
    2    0           2.0000        -0.878795       -23.9132
    2    1           4.0000        -0.332075        -9.0362

  Creating fixed part of basis set: Ionic, confined, hydrogenic.
 
  O                    hydrogenic:
 
  List of hydrogenic basis orbitals: 
    n    l      effective z      eigenvalue [eV]  inner max. [A]     outer max. [A]     outer radius [A]   
    2    1         1.800000       -11.0118           1.178562           1.178562           5.432602
    3    2         7.600000       -87.3183           0.624125           0.624125           4.634338
    3    0         6.400000       -61.9210           0.061167           1.081902           5.110480
    4    3        11.600000      -114.4239           0.731631           0.731631           4.522403
    3    1         6.200000       -58.1114           0.255680           1.030270           5.110480
    3    2         5.600000       -47.4083           0.847233           0.847233           5.173339
    5    4        17.600000      -168.5800           0.749740           0.749740           4.051222
    1    0         0.750000        -7.6499           0.705284           0.705284           5.366593
 

  Adding cutoff potential to free-atom effective potential.
  Creating atomic-like basis functions for current effective potential.

  Species O                   :

  List of atomic basis orbitals and eigenvalues:
    n    l      energy [Ha]    energy [eV]    outer radius [A]
    1    0       -18.898576      -514.2564       1.415765
    2    0        -0.878795       -23.9132       5.048385
    2    1        -0.332075        -9.0362       5.301386

  Assembling full basis from fixed parts.
  | Species O :   atomic orbital   1 s accepted.
  | Species O :   atomic orbital   2 s accepted.
  | Species O :    hydro orbital   3 s accepted.
  | Species O :    hydro orbital   1 s accepted.
  | Species O :   atomic orbital   2 p accepted.
  | Species O :    hydro orbital   2 p accepted.
  | Species O :    hydro orbital   3 p accepted.
  | Species O :    hydro orbital   3 d accepted.
  | Species O :    hydro orbital   3 d accepted.
  | Species O :    hydro orbital   4 f accepted.
  | Species O :    hydro orbital   5 g accepted.
 
  Basis size parameters after reduction:
  | Total number of radial functions:       11
  | Total number of basis functions :       78
 
  Testing on-site integration grid accuracy.
  |  Species  Function  <phi|h_atom|phi> (log., in eV)  <phi|h_atom|phi> (rad., in eV)
           1        1               -514.2564144315               -514.2564099626
           1        2                -23.9132357102                -23.9132356433
           1        3                 17.5398579759                 17.5398338425
           1        4                 14.5207278950                 14.5207740449
           1        5                 -9.0362392718                 -9.0362394845
           1        6                  7.9056275927                  7.9056237490
           1        7                 33.4201658992                 33.4201612015
           1        8                 45.8231952720                 45.8231953152
           1        9                 52.1937595491                 52.1937593440
           1       10                 85.4062894308                 85.4062894578
           1       11                142.0975701139                142.0975701391

  Preparing densities etc. for the partition functions (integrals / Hartree potential).

  Preparations completed.
  max(cpu_time)          :      0.148 s.
  Wall clock time (cpu1) :      0.374 s.
------------------------------------------------------------

------------------------------------------------------------
          Begin self-consistency loop: Initialization.

          Date     :  20190722, Time     :  142026.999
------------------------------------------------------------

  Initializing index lists of integration centers etc. from given atomic structure:
  | Number of centers in hartree potential         :         2
  | Number of centers in hartree multipole         :         2
  | Number of centers in electron density summation:         2
  | Number of centers in basis integrals           :         2
  | Number of centers in integrals                 :         2
  | Number of centers in hamiltonian               :         2
  Initializing relaxation algorithms.
  Partitioning the integration grid into batches with parallel hashing+maxmin method.
  | Number of batches:      742
  | Maximal batch size:     112
  | Minimal batch size:      49
  | Average batch size:      71.779
  | Standard deviation of batch sizes:      21.702

  Integration load balanced across     4 MPI tasks.
  Work distribution over tasks is as follows:
  Task     0 has      13280 integration points.
  Task     1 has      13300 integration points.
  Task     2 has      13300 integration points.
  Task     3 has      13380 integration points.
  Initializing partition tables, free-atom densities, potentials, etc. across the integration grid (initialize_grid_storage).
  | initialize_grid_storage: Actual outermost partition radius vs. multipole_radius_free
  | (-- VB: in principle, multipole_radius_free should be larger, hence this output)
  | Species        1: Confinement radius =              6.000000000000000 AA, multipole_radius_free =              6.064445521808699 AA.
  | Species        1: outer_partition_radius set to              6.064445521808699 AA .
  | Original list of interatomic distances with           2 x          2 entries is created.
  | Net number of integration points:    53260
  | of which are non-zero points    :    50204
  Obtaining max. number of non-zero basis functions in each batch (get_n_compute_maxes).
  | Maximal number of non-zero basis functions:       78 in task     0
  | Maximal number of non-zero basis functions:       78 in task     1
  | Maximal number of non-zero basis functions:       78 in task     2
  | Maximal number of non-zero basis functions:       78 in task     3
  Selecting the method for density update.
  Loop over occupied states selected for charge density update.
  Integrating Hamiltonian matrix: batch-based integration.
  Time summed over all CPUs for integration: real work        0.181 s, elapsed        0.184 s
  Integrating overlap matrix.
  Time summed over all CPUs for integration: real work        0.062 s, elapsed        0.063 s

  Reading cluster restart information from file restart
  Writing Kohn-Sham eigenvalues.

  State    Occupation    Eigenvalue [Ha]    Eigenvalue [eV]
      1       2.00000         -19.413340         -528.26385
      2       2.00000         -19.413119         -528.25784
      3       2.00000          -1.745155          -47.48808
      4       2.00000          -1.151661          -31.33829
      5       2.00000          -0.968126          -26.34404
      6       2.00000          -0.948603          -25.81280
      7       2.00000          -0.941466          -25.61858
      8       0.00000          -0.649278          -17.66776
      9       1.00000          -0.631328          -17.17930
     10       0.00000          -0.180163           -4.90248
     11       0.00000          -0.160925           -4.37899
     12       0.00000          -0.117233           -3.19008
     13       0.00000           0.000000            0.00000
     14       0.00000           0.000000            0.00000

  Highest occupied state (VBM) at    -17.17930108 eV
  | Occupation number:      1.00000000

  Lowest unoccupied state (CBM) at   -17.66776166 eV
  | Occupation number:      0.00000000

  Overall HOMO-LUMO gap:     -0.48846057 eV.
  Calculating total energy contributions from superposition of free atom densities.

  Total energy components:
  | Sum of eigenvalues            :         -89.79426407 Ha       -2443.42624543 eV
  | XC energy correction          :         -16.76402082 Ha        -456.17221629 eV
  | XC potential correction       :          21.55039927 Ha         586.41620056 eV
  | Free-atom electrostatic energy:         -71.89305466 Ha       -1956.30955312 eV
  | Hartree energy correction     :           0.00000000 Ha           0.00000000 eV
  | Entropy correction            :          -0.00020734 Ha          -0.00564190 eV
  | ---------------------------
  | Total energy                  :        -156.90094028 Ha       -4269.49181429 eV
  | Total energy, T -> 0          :        -156.90114761 Ha       -4269.49745618 eV  <-- do not rely on this value for anything but (periodic) metals
  | Electronic free energy        :        -156.90135495 Ha       -4269.50309808 eV

  Derived energy quantities:
  | Kinetic energy                :         143.05962028 Ha        3892.85033382 eV
  | Electrostatic energy          :        -283.19653974 Ha       -7706.16993181 eV
  | Energy correction for multipole
  | error in Hartree potential    :           0.00000000 Ha           0.00000000 eV
  | Sum of eigenvalues per atom                           :       -1221.71312272 eV
  | Total energy (T->0) per atom                          :       -2134.74872809 eV  <-- do not rely on this value for anything but (periodic) metals
  | Electronic free energy per atom                       :       -2134.75154904 eV
  Initialize hartree_potential_storage
  Max. number of atoms included in rho_multipole:            2

  End scf initialization - timings             :  max(cpu_time)    wall_clock(cpu1)
  | Time for scf. initialization               :        0.143 s           0.161 s
  | Boundary condition initialization          :        0.000 s           0.001 s
  | Relaxation initialization                  :        0.001 s           0.004 s
  | Integration                                :        0.060 s           0.064 s
  | Solution of K.-S. eqns.                    :        0.022 s           0.022 s
  | Grid partitioning                          :        0.023 s           0.026 s
  | Preloading free-atom quantities on grid    :        0.017 s           0.017 s
  | Free-atom superposition energy             :        0.010 s           0.010 s
  | Total energy evaluation                    :        0.001 s           0.002 s
------------------------------------------------------------

------------------------------------------------------------
          Initial SCF-cycle to compute last known
          density from restart information.

  Date     :  20190722, Time     :  142027.162
------------------------------------------------------------
  Evaluating new KS density.
  Integration grid: deviation in total charge (<rho> - N_e) =  -1.006704E-01

  Evaluating partitioned Hartree potential by multipole expansion.
  | Analytical far-field extrapolation by fixed multipoles:
  | Hartree multipole sum: apparent total charge =   0.110067E+01
  Summing up the Hartree potential.
  Time summed over all CPUs for potential: real work        0.105 s, elapsed        0.105 s
  | RMS charge density error from multipole expansion :   0.732183E-03

  Integrating Hamiltonian matrix: batch-based integration.
  Time summed over all CPUs for integration: real work        0.165 s, elapsed        0.167 s

  Updating Kohn-Sham eigenvalues, eigenvectors, occupation numbers, and Fermi level.
  Solving generalized eigenproblem
  Updating Kohn-Sham eigenvalues and eigenfunctions.
  Transforming overlap matrix and checking for singularities.
  Overlap matrix is nonsingular:
  | Lowest eigenvalue:  0.279359E-03
  Solving real generalised eigenvalue problem by standard LAPACK (fast)
 BIG   1.02259575304786     
 FORCED TO: now -- previous           9           8           9           8
  Determining occupation numbers for Kohn-Sham eigenstates.
  | Chemical potential (Fermi level) in eV                 : -.1950E+02
  | Error in electron count due to remaining E_F inaccuracy: 0.0000E+00

  Highest occupied state (VBM) at    -26.32780465 eV
  | Occupation number:      2.00000000

  Lowest unoccupied state (CBM) at   -19.82938637 eV
  | Occupation number:      0.50000000

  Overall HOMO-LUMO gap:      6.49841828 eV.

  Total energy components:
  | Sum of eigenvalues            :         -90.38021095 Ha       -2459.37067137 eV
  | XC energy correction          :         -16.32732461 Ha        -444.28910773 eV
  | XC potential correction       :          20.97713093 Ha         570.81677541 eV
  | Free-atom electrostatic energy:         -71.89305466 Ha       -1956.30955312 eV
  | Hartree energy correction     :           7.83153449 Ha         213.10689623 eV
  | Entropy correction            :           0.00000000 Ha           0.00000000 eV
  | ---------------------------
  | Total energy                  :        -149.79192479 Ha       -4076.04566057 eV
  | Total energy, T -> 0          :        -149.79192479 Ha       -4076.04566057 eV  <-- do not rely on this value for anything but (periodic) metals
  | Electronic free energy        :        -149.79192479 Ha       -4076.04566057 eV

  Derived energy quantities:
  | Kinetic energy                :         148.99489652 Ha        4054.35741785 eV
  | Electrostatic energy          :        -282.45949671 Ha       -7686.11397070 eV
  | Energy correction for multipole
  | error in Hartree potential    :          -0.00043170 Ha          -0.01174717 eV
  | Sum of eigenvalues per atom                           :       -1229.68533568 eV
  | Total energy (T->0) per atom                          :       -2038.02283029 eV  <-- do not rely on this value for anything but (periodic) metals
  | Electronic free energy per atom                       :       -2038.02283029 eV

  Self-consistency convergence accuracy:
  | Change of charge density      :  0.2398E+00
  | Change of sum of eigenvalues  : -0.1594E+02 eV
  | Change of total energy        :  0.1934E+03 eV

  End self-consistency iteration #     0       :  max(cpu_time)    wall_clock(cpu1)
  | Time for this iteration                    :        0.116 s           0.159 s
  | Charge density update                      :        0.031 s           0.034 s
  | Density mixing                             :        0.000 s           0.000 s
  | Hartree multipole update                   :        0.005 s           0.006 s
  | Hartree multipole summation                :        0.027 s           0.029 s
  | Integration                                :        0.042 s           0.043 s
  | Solution of K.-S. eqns.                    :        0.010 s           0.046 s
  | Total energy evaluation                    :        0.000 s           0.001 s
------------------------------------------------------------

------------------------------------------------------------
          Begin self-consistency iteration #    1

  Date     :  20190722, Time     :  142027.322
------------------------------------------------------------
  Evaluating new KS density.
  Integration grid: deviation in total charge (<rho> - N_e) =   0.000000E+00
  Pulay mixing of updated and previous charge densities.

  Evaluating partitioned Hartree potential by multipole expansion.
  | Analytical far-field extrapolation by fixed multipoles:
  | Hartree multipole sum: apparent total charge =   0.108054E+01
  Summing up the Hartree potential.
  Time summed over all CPUs for potential: real work        0.099 s, elapsed        0.100 s
  | RMS charge density error from multipole expansion :   0.633556E-03

  Integrating Hamiltonian matrix: batch-based integration.
  Time summed over all CPUs for integration: real work        0.165 s, elapsed        0.166 s

  Updating Kohn-Sham eigenvalues, eigenvectors, occupation numbers, and Fermi level.
  Solving generalized eigenproblem
  Updating Kohn-Sham eigenvalues and eigenfunctions.
  Solving real generalised eigenvalue problem by standard LAPACK (fast)
 BIG  0.999992437757177     
 FORCED TO: now -- previous           9           8           9           8
  Determining occupation numbers for Kohn-Sham eigenstates.
  | Chemical potential (Fermi level) in eV                 : -.1715E+02
  | Error in electron count due to remaining E_F inaccuracy: 0.0000E+00

  Writing Kohn-Sham eigenvalues.

  State    Occupation    Eigenvalue [Ha]    Eigenvalue [eV]
      1       2.00000         -19.455836         -529.42023
      2       2.00000         -19.455757         -529.41808
      3       2.00000          -1.714819          -46.66259
      4       2.00000          -1.208898          -32.89579
      5       2.00000          -0.969758          -26.38846
      6       2.00000          -0.962661          -26.19535
      7       2.00000          -0.954383          -25.97010
      8       0.50000          -0.712884          -19.39855
      9       0.50000          -0.698300          -19.00171
     10       0.00000          -0.331994           -9.03401
     11       0.00000          -0.181970           -4.95165
     12       0.00000          -0.134462           -3.65891
     13       0.00000          -0.131414           -3.57596
     14       0.00000          -0.107476           -2.92456

  Highest occupied state (VBM) at    -25.97009501 eV
  | Occupation number:      2.00000000

  Lowest unoccupied state (CBM) at   -19.39854914 eV
  | Occupation number:      0.50000000

  Overall HOMO-LUMO gap:      6.57154587 eV.

  Total energy components:
  | Sum of eigenvalues            :         -90.14981650 Ha       -2453.10131925 eV
  | XC energy correction          :         -16.34046780 Ha        -444.64675223 eV
  | XC potential correction       :          20.99459070 Ha         571.29188001 eV
  | Free-atom electrostatic energy:         -71.89305466 Ha       -1956.30955312 eV
  | Hartree energy correction     :           7.60138634 Ha         206.84424630 eV
  | Entropy correction            :           0.00000000 Ha           0.00000000 eV
  | ---------------------------
  | Total energy                  :        -149.78736191 Ha       -4075.92149829 eV
  | Total energy, T -> 0          :        -149.78736191 Ha       -4075.92149829 eV  <-- do not rely on this value for anything but (periodic) metals
  | Electronic free energy        :        -149.78736191 Ha       -4075.92149829 eV

  Derived energy quantities:
  | Kinetic energy                :         149.08110849 Ha        4056.70336477 eV
  | Electrostatic energy          :        -282.52800260 Ha       -7687.97811083 eV
  | Energy correction for multipole
  | error in Hartree potential    :          -0.00042448 Ha          -0.01155073 eV
  | Sum of eigenvalues per atom                           :       -1226.55065963 eV
  | Total energy (T->0) per atom                          :       -2037.96074914 eV  <-- do not rely on this value for anything but (periodic) metals
  | Electronic free energy per atom                       :       -2037.96074914 eV

  Self-consistency convergence accuracy:
  | Change of charge density      :  0.1836E+00
  | Change of sum of eigenvalues  :  0.6269E+01 eV
  | Change of total energy        :  0.1242E+00 eV

  End self-consistency iteration #     1       :  max(cpu_time)    wall_clock(cpu1)
  | Time for this iteration                    :        0.109 s           0.109 s
  | Charge density update                      :        0.030 s           0.029 s
  | Density mixing                             :        0.001 s           0.003 s
  | Hartree multipole update                   :        0.004 s           0.003 s
  | Hartree multipole summation                :        0.026 s           0.027 s
  | Integration                                :        0.042 s           0.042 s
  | Solution of K.-S. eqns.                    :        0.001 s           0.001 s
  | Total energy evaluation                    :        0.000 s           0.002 s
------------------------------------------------------------

------------------------------------------------------------
          Begin self-consistency iteration #    2

  Date     :  20190722, Time     :  142027.433
------------------------------------------------------------
  Evaluating new KS density.
  Integration grid: deviation in total charge (<rho> - N_e) =   1.776357E-14
  Pulay mixing of updated and previous charge densities.

  Evaluating partitioned Hartree potential by multipole expansion.
  | Analytical far-field extrapolation by fixed multipoles:
  | Hartree multipole sum: apparent total charge =   0.101079E+01
  Summing up the Hartree potential.
  Time summed over all CPUs for potential: real work        0.098 s, elapsed        0.099 s
  | RMS charge density error from multipole expansion :   0.415446E-03

  Integrating Hamiltonian matrix: batch-based integration.
  Time summed over all CPUs for integration: real work        0.165 s, elapsed        0.167 s

  Updating Kohn-Sham eigenvalues, eigenvectors, occupation numbers, and Fermi level.
  Solving generalized eigenproblem
  Updating Kohn-Sham eigenvalues and eigenfunctions.
  Solving real generalised eigenvalue problem by standard LAPACK (fast)
 BIG  0.999927184647730     
 FORCED TO: now -- previous           9           8           9           8
  Determining occupation numbers for Kohn-Sham eigenstates.
  | Chemical potential (Fermi level) in eV                 : -.1660E+02
  | Error in electron count due to remaining E_F inaccuracy: 0.0000E+00

  Highest occupied state (VBM) at    -24.86434881 eV
  | Occupation number:      2.00000000

  Lowest unoccupied state (CBM) at   -18.02094726 eV
  | Occupation number:      0.50000000

  Overall HOMO-LUMO gap:      6.84340154 eV.

  Total energy components:
  | Sum of eigenvalues            :         -89.43905487 Ha       -2433.76051137 eV
  | XC energy correction          :         -16.38245802 Ha        -445.78936417 eV
  | XC potential correction       :          21.05013024 Ha         572.80318775 eV
  | Free-atom electrostatic energy:         -71.89305466 Ha       -1956.30955312 eV
  | Hartree energy correction     :           6.88257715 Ha         187.28445330 eV
  | Entropy correction            :           0.00000000 Ha           0.00000000 eV
  | ---------------------------
  | Total energy                  :        -149.78186015 Ha       -4075.77178760 eV
  | Total energy, T -> 0          :        -149.78186015 Ha       -4075.77178760 eV  <-- do not rely on this value for anything but (periodic) metals
  | Electronic free energy        :        -149.78186015 Ha       -4075.77178760 eV

  Derived energy quantities:
  | Kinetic energy                :         149.27914310 Ha        4062.09216069 eV
  | Electrostatic energy          :        -282.67854523 Ha       -7692.07458412 eV
  | Energy correction for multipole
  | error in Hartree potential    :          -0.00037923 Ha          -0.01031929 eV
  | Sum of eigenvalues per atom                           :       -1216.88025568 eV
  | Total energy (T->0) per atom                          :       -2037.88589380 eV  <-- do not rely on this value for anything but (periodic) metals
  | Electronic free energy per atom                       :       -2037.88589380 eV

  Self-consistency convergence accuracy:
  | Change of charge density      :  0.1430E+00
  | Change of sum of eigenvalues  :  0.1934E+02 eV
  | Change of total energy        :  0.1497E+00 eV

  End self-consistency iteration #     2       :  max(cpu_time)    wall_clock(cpu1)
  | Time for this iteration                    :        0.108 s           0.109 s
  | Charge density update                      :        0.030 s           0.029 s
  | Density mixing                             :        0.003 s           0.004 s
  | Hartree multipole update                   :        0.004 s           0.003 s
  | Hartree multipole summation                :        0.026 s           0.025 s
  | Integration                                :        0.042 s           0.042 s
  | Solution of K.-S. eqns.                    :        0.001 s           0.001 s
  | Total energy evaluation                    :        0.001 s           0.002 s
------------------------------------------------------------

------------------------------------------------------------
          Begin self-consistency iteration #    3

  Date     :  20190722, Time     :  142027.543
------------------------------------------------------------
  Evaluating new KS density.
  Integration grid: deviation in total charge (<rho> - N_e) =   5.329071E-15
  Pulay mixing of updated and previous charge densities.

  Evaluating partitioned Hartree potential by multipole expansion.
  | Analytical far-field extrapolation by fixed multipoles:
  | Hartree multipole sum: apparent total charge =   0.100174E+01
  Summing up the Hartree potential.
  Time summed over all CPUs for potential: real work        0.097 s, elapsed        0.098 s
  | RMS charge density error from multipole expansion :   0.429742E-03

  Integrating Hamiltonian matrix: batch-based integration.
  Time summed over all CPUs for integration: real work        0.165 s, elapsed        0.167 s

  Updating Kohn-Sham eigenvalues, eigenvectors, occupation numbers, and Fermi level.
  Solving generalized eigenproblem
  Updating Kohn-Sham eigenvalues and eigenfunctions.
  Solving real generalised eigenvalue problem by standard LAPACK (fast)
 BIG  0.999994752809675     
 FORCED TO: now -- previous           8           9           9           8
  Determining occupation numbers for Kohn-Sham eigenstates.
  | Chemical potential (Fermi level) in eV                 : -.1660E+02
  | Error in electron count due to remaining E_F inaccuracy: 0.0000E+00

  Highest occupied state (VBM) at    -25.01038782 eV
  | Occupation number:      2.00000000

  Lowest unoccupied state (CBM) at   -18.12596765 eV
  | Occupation number:      0.50000000

  Overall HOMO-LUMO gap:      6.88442017 eV.

  Total energy components:
  | Sum of eigenvalues            :         -89.54127088 Ha       -2436.54195049 eV
  | XC energy correction          :         -16.36791452 Ha        -445.39361542 eV
  | XC potential correction       :          21.03108115 Ha         572.28483571 eV
  | Free-atom electrostatic energy:         -71.89305466 Ha       -1956.30955312 eV
  | Hartree energy correction     :           6.98963247 Ha         190.19757667 eV
  | Entropy correction            :           0.00000000 Ha           0.00000000 eV
  | ---------------------------
  | Total energy                  :        -149.78152643 Ha       -4075.76270665 eV
  | Total energy, T -> 0          :        -149.78152643 Ha       -4075.76270665 eV  <-- do not rely on this value for anything but (periodic) metals
  | Electronic free energy        :        -149.78152643 Ha       -4075.76270665 eV

  Derived energy quantities:
  | Kinetic energy                :         149.12851298 Ha        4057.99330655 eV
  | Electrostatic energy          :        -282.54212489 Ha       -7688.36239777 eV
  | Energy correction for multipole
  | error in Hartree potential    :          -0.00032522 Ha          -0.00884967 eV
  | Sum of eigenvalues per atom                           :       -1218.27097524 eV
  | Total energy (T->0) per atom                          :       -2037.88135332 eV  <-- do not rely on this value for anything but (periodic) metals
  | Electronic free energy per atom                       :       -2037.88135332 eV

  Self-consistency convergence accuracy:
  | Change of charge density      :  0.2447E-01
  | Change of sum of eigenvalues  : -0.2781E+01 eV
  | Change of total energy        :  0.9081E-02 eV

  End self-consistency iteration #     3       :  max(cpu_time)    wall_clock(cpu1)
  | Time for this iteration                    :        0.107 s           0.107 s
  | Charge density update                      :        0.030 s           0.029 s
  | Density mixing                             :        0.002 s           0.002 s
  | Hartree multipole update                   :        0.005 s           0.004 s
  | Hartree multipole summation                :        0.026 s           0.025 s
  | Integration                                :        0.043 s           0.043 s
  | Solution of K.-S. eqns.                    :        0.001 s           0.001 s
  | Total energy evaluation                    :        0.000 s           0.001 s
------------------------------------------------------------

------------------------------------------------------------
          Begin self-consistency iteration #    4

  Date     :  20190722, Time     :  142027.651
------------------------------------------------------------
  Evaluating new KS density.
  Integration grid: deviation in total charge (<rho> - N_e) =   0.000000E+00
  Pulay mixing of updated and previous charge densities.

  Evaluating partitioned Hartree potential by multipole expansion.
  | Analytical far-field extrapolation by fixed multipoles:
  | Hartree multipole sum: apparent total charge =   0.100141E+01
  Summing up the Hartree potential.
  Time summed over all CPUs for potential: real work        0.098 s, elapsed        0.100 s
  | RMS charge density error from multipole expansion :   0.429493E-03

  Integrating Hamiltonian matrix: batch-based integration.
  Time summed over all CPUs for integration: real work        0.168 s, elapsed        0.169 s

  Updating Kohn-Sham eigenvalues, eigenvectors, occupation numbers, and Fermi level.
  Solving generalized eigenproblem
  Updating Kohn-Sham eigenvalues and eigenfunctions.
  Solving real generalised eigenvalue problem by standard LAPACK (fast)
 BIG  0.999999998123654     
 FORCED TO: now -- previous           8           9           8           9
  Determining occupation numbers for Kohn-Sham eigenstates.
  | Chemical potential (Fermi level) in eV                 : -.1659E+02
  | Error in electron count due to remaining E_F inaccuracy: 0.0000E+00

  Highest occupied state (VBM) at    -25.00445436 eV
  | Occupation number:      2.00000000

  Lowest unoccupied state (CBM) at   -18.11945448 eV
  | Occupation number:      0.50000000

  Overall HOMO-LUMO gap:      6.88499987 eV.

  Total energy components:
  | Sum of eigenvalues            :         -89.53705907 Ha       -2436.42734148 eV
  | XC energy correction          :         -16.36836417 Ha        -445.40585115 eV
  | XC potential correction       :          21.03166585 Ha         572.30074598 eV
  | Free-atom electrostatic energy:         -71.89305466 Ha       -1956.30955312 eV
  | Hartree energy correction     :           6.98528633 Ha         190.07931218 eV
  | Entropy correction            :           0.00000000 Ha           0.00000000 eV
  | ---------------------------
  | Total energy                  :        -149.78152573 Ha       -4075.76268758 eV
  | Total energy, T -> 0          :        -149.78152573 Ha       -4075.76268758 eV  <-- do not rely on this value for anything but (periodic) metals
  | Electronic free energy        :        -149.78152573 Ha       -4075.76268758 eV

  Derived energy quantities:
  | Kinetic energy                :         149.13226642 Ha        4058.09544280 eV
  | Electrostatic energy          :        -282.54542797 Ha       -7688.45227923 eV
  | Energy correction for multipole
  | error in Hartree potential    :          -0.00032555 Ha          -0.00885859 eV
  | Sum of eigenvalues per atom                           :       -1218.21367074 eV
  | Total energy (T->0) per atom                          :       -2037.88134379 eV  <-- do not rely on this value for anything but (periodic) metals
  | Electronic free energy per atom                       :       -2037.88134379 eV

  Self-consistency convergence accuracy:
  | Change of charge density      :  0.2486E-02
  | Change of sum of eigenvalues  :  0.1146E+00 eV
  | Change of total energy        :  0.1907E-04 eV

  End self-consistency iteration #     4       :  max(cpu_time)    wall_clock(cpu1)
  | Time for this iteration                    :        0.116 s           0.116 s
  | Charge density update                      :        0.032 s           0.032 s
  | Density mixing                             :        0.003 s           0.003 s
  | Hartree multipole update                   :        0.005 s           0.005 s
  | Hartree multipole summation                :        0.026 s           0.025 s
  | Integration                                :        0.043 s           0.043 s
  | Solution of K.-S. eqns.                    :        0.003 s           0.004 s
  | Total energy evaluation                    :        0.001 s           0.002 s
------------------------------------------------------------

------------------------------------------------------------
          Begin self-consistency iteration #    5

  Date     :  20190722, Time     :  142027.769
------------------------------------------------------------
  Evaluating new KS density.
  Integration grid: deviation in total charge (<rho> - N_e) =  -2.131628E-14
  Pulay mixing of updated and previous charge densities.

  Evaluating partitioned Hartree potential by multipole expansion.
  | Analytical far-field extrapolation by fixed multipoles:
  | Hartree multipole sum: apparent total charge =   0.100007E+01
  Summing up the Hartree potential.
  Time summed over all CPUs for potential: real work        0.097 s, elapsed        0.098 s
  | RMS charge density error from multipole expansion :   0.428580E-03

  Integrating Hamiltonian matrix: batch-based integration.
  Time summed over all CPUs for integration: real work        0.164 s, elapsed        0.166 s

  Updating Kohn-Sham eigenvalues, eigenvectors, occupation numbers, and Fermi level.
  Solving generalized eigenproblem
  Updating Kohn-Sham eigenvalues and eigenfunctions.
  Solving real generalised eigenvalue problem by standard LAPACK (fast)
 BIG  0.999999975761447     
 FORCED TO: now -- previous           8           9           8           9
  Determining occupation numbers for Kohn-Sham eigenstates.
  | Chemical potential (Fermi level) in eV                 : -.1658E+02
  | Error in electron count due to remaining E_F inaccuracy: 0.0000E+00

  Highest occupied state (VBM) at    -24.98511669 eV
  | Occupation number:      2.00000000

  Lowest unoccupied state (CBM) at   -18.09331061 eV
  | Occupation number:      0.50000000

  Overall HOMO-LUMO gap:      6.89180607 eV.

  Total energy components:
  | Sum of eigenvalues            :         -89.52091269 Ha       -2435.98797612 eV
  | XC energy correction          :         -16.37022955 Ha        -445.45661057 eV
  | XC potential correction       :          21.03408394 Ha         572.36654565 eV
  | Free-atom electrostatic energy:         -71.89305466 Ha       -1956.30955312 eV
  | Hartree energy correction     :           6.96858866 Ha         189.62494547 eV
  | Entropy correction            :           0.00000000 Ha           0.00000000 eV
  | ---------------------------
  | Total energy                  :        -149.78152430 Ha       -4075.76264868 eV
  | Total energy, T -> 0          :        -149.78152430 Ha       -4075.76264868 eV  <-- do not rely on this value for anything but (periodic) metals
  | Electronic free energy        :        -149.78152430 Ha       -4075.76264868 eV

  Derived energy quantities:
  | Kinetic energy                :         149.14921959 Ha        4058.55676226 eV
  | Electrostatic energy          :        -282.56051435 Ha       -7688.86280037 eV
  | Energy correction for multipole
  | error in Hartree potential    :          -0.00032709 Ha          -0.00890044 eV
  | Sum of eigenvalues per atom                           :       -1217.99398806 eV
  | Total energy (T->0) per atom                          :       -2037.88132434 eV  <-- do not rely on this value for anything but (periodic) metals
  | Electronic free energy per atom                       :       -2037.88132434 eV

  Self-consistency convergence accuracy:
  | Change of charge density      :  0.2043E-02
  | Change of sum of eigenvalues  :  0.4394E+00 eV
  | Change of total energy        :  0.3890E-04 eV

  End self-consistency iteration #     5       :  max(cpu_time)    wall_clock(cpu1)
  | Time for this iteration                    :        0.108 s           0.106 s
  | Charge density update                      :        0.030 s           0.029 s
  | Density mixing                             :        0.002 s           0.002 s
  | Hartree multipole update                   :        0.004 s           0.004 s
  | Hartree multipole summation                :        0.025 s           0.025 s
  | Integration                                :        0.042 s           0.042 s
  | Solution of K.-S. eqns.                    :        0.001 s           0.002 s
  | Total energy evaluation                    :        0.000 s           0.002 s
------------------------------------------------------------

------------------------------------------------------------
          Begin self-consistency iteration #    6

  Date     :  20190722, Time     :  142027.877
------------------------------------------------------------
  Evaluating new KS density.
  Integration grid: deviation in total charge (<rho> - N_e) =  -8.881784E-15
  Pulay mixing of updated and previous charge densities.

  Evaluating partitioned Hartree potential by multipole expansion.
  | Analytical far-field extrapolation by fixed multipoles:
  | Hartree multipole sum: apparent total charge =   0.999994E+00
  Summing up the Hartree potential.
  Time summed over all CPUs for potential: real work        0.103 s, elapsed        0.104 s
  | RMS charge density error from multipole expansion :   0.428399E-03

  Integrating Hamiltonian matrix: batch-based integration.
  Time summed over all CPUs for integration: real work        0.165 s, elapsed        0.167 s

  Updating Kohn-Sham eigenvalues, eigenvectors, occupation numbers, and Fermi level.
  Solving generalized eigenproblem
  Updating Kohn-Sham eigenvalues and eigenfunctions.
  Solving real generalised eigenvalue problem by standard LAPACK (fast)
 BIG  0.999999965735495     
 FORCED TO: now -- previous           8           9           8           9
  Determining occupation numbers for Kohn-Sham eigenstates.
  | Chemical potential (Fermi level) in eV                 : -.1658E+02
  | Error in electron count due to remaining E_F inaccuracy: 0.0000E+00

  Highest occupied state (VBM) at    -24.98860623 eV
  | Occupation number:      2.00000000

  Lowest unoccupied state (CBM) at   -18.09636386 eV
  | Occupation number:      0.50000000

  Overall HOMO-LUMO gap:      6.89224237 eV.

  Total energy components:
  | Sum of eigenvalues            :         -89.52347764 Ha       -2436.05777174 eV
  | XC energy correction          :         -16.36982310 Ha        -445.44555049 eV
  | XC potential correction       :          21.03355166 Ha         572.35206158 eV
  | Free-atom electrostatic energy:         -71.89305466 Ha       -1956.30955312 eV
  | Hartree energy correction     :           6.97127954 Ha         189.69816805 eV
  | Entropy correction            :           0.00000000 Ha           0.00000000 eV
  | ---------------------------
  | Total energy                  :        -149.78152419 Ha       -4075.76264572 eV
  | Total energy, T -> 0          :        -149.78152419 Ha       -4075.76264572 eV  <-- do not rely on this value for anything but (periodic) metals
  | Electronic free energy        :        -149.78152419 Ha       -4075.76264572 eV

  Derived energy quantities:
  | Kinetic energy                :         149.14625604 Ha        4058.47611975 eV
  | Electrostatic energy          :        -282.55795713 Ha       -7688.79321498 eV
  | Energy correction for multipole
  | error in Hartree potential    :          -0.00032651 Ha          -0.00888473 eV
  | Sum of eigenvalues per atom                           :       -1218.02888587 eV
  | Total energy (T->0) per atom                          :       -2037.88132286 eV  <-- do not rely on this value for anything but (periodic) metals
  | Electronic free energy per atom                       :       -2037.88132286 eV

  Self-consistency convergence accuracy:
  | Change of charge density      :  0.4812E-03
  | Change of sum of eigenvalues  : -0.6980E-01 eV
  | Change of total energy        :  0.2966E-05 eV

  End self-consistency iteration #     6       :  max(cpu_time)    wall_clock(cpu1)
  | Time for this iteration                    :        0.110 s           0.109 s
  | Charge density update                      :        0.030 s           0.029 s
  | Density mixing                             :        0.002 s           0.002 s
  | Hartree multipole update                   :        0.005 s           0.005 s
  | Hartree multipole summation                :        0.027 s           0.027 s
  | Integration                                :        0.042 s           0.042 s
  | Solution of K.-S. eqns.                    :        0.001 s           0.001 s
  | Total energy evaluation                    :        0.000 s           0.002 s
------------------------------------------------------------

------------------------------------------------------------
          Begin self-consistency iteration #    7

  Date     :  20190722, Time     :  142027.987
------------------------------------------------------------
  Evaluating new KS density.
  Integration grid: deviation in total charge (<rho> - N_e) =   3.552714E-15
  Pulay mixing of updated and previous charge densities.

  Evaluating partitioned Hartree potential by multipole expansion.
  | Analytical far-field extrapolation by fixed multipoles:
  | Hartree multipole sum: apparent total charge =   0.999997E+00
  Summing up the Hartree potential.
  Time summed over all CPUs for potential: real work        0.097 s, elapsed        0.098 s
  | RMS charge density error from multipole expansion :   0.428400E-03

  Integrating Hamiltonian matrix: batch-based integration.
  Time summed over all CPUs for integration: real work        0.167 s, elapsed        0.175 s

  Updating Kohn-Sham eigenvalues, eigenvectors, occupation numbers, and Fermi level.
  Solving generalized eigenproblem
  Updating Kohn-Sham eigenvalues and eigenfunctions.
  Solving real generalised eigenvalue problem by standard LAPACK (fast)
 BIG  0.999999990743392     
 FORCED TO: now -- previous           8           9           8           9
  Determining occupation numbers for Kohn-Sham eigenstates.
  | Chemical potential (Fermi level) in eV                 : -.1658E+02
  | Error in electron count due to remaining E_F inaccuracy: 0.0000E+00

  Highest occupied state (VBM) at    -24.98872407 eV
  | Occupation number:      2.00000000

  Lowest unoccupied state (CBM) at   -18.09647259 eV
  | Occupation number:      0.50000000

  Overall HOMO-LUMO gap:      6.89225147 eV.

  Total energy components:
  | Sum of eigenvalues            :         -89.52354430 Ha       -2436.05958576 eV
  | XC energy correction          :         -16.36981691 Ha        -445.44538226 eV
  | XC potential correction       :          21.03354346 Ha         572.35183849 eV
  | Free-atom electrostatic energy:         -71.89305466 Ha       -1956.30955312 eV
  | Hartree energy correction     :           6.97134822 Ha         189.70003694 eV
  | Entropy correction            :           0.00000000 Ha           0.00000000 eV
  | ---------------------------
  | Total energy                  :        -149.78152419 Ha       -4075.76264571 eV
  | Total energy, T -> 0          :        -149.78152419 Ha       -4075.76264571 eV  <-- do not rely on this value for anything but (periodic) metals
  | Electronic free energy        :        -149.78152419 Ha       -4075.76264571 eV

  Derived energy quantities:
  | Kinetic energy                :         149.14623348 Ha        4058.47550599 eV
  | Electrostatic energy          :        -282.55794076 Ha       -7688.79276945 eV
  | Energy correction for multipole
  | error in Hartree potential    :          -0.00032650 Ha          -0.00888458 eV
  | Sum of eigenvalues per atom                           :       -1218.02979288 eV
  | Total energy (T->0) per atom                          :       -2037.88132286 eV  <-- do not rely on this value for anything but (periodic) metals
  | Electronic free energy per atom                       :       -2037.88132286 eV

  Self-consistency convergence accuracy:
  | Change of charge density      :  0.7197E-05
  | Change of sum of eigenvalues  : -0.1814E-02 eV
  | Change of total energy        :  0.4150E-08 eV

  Electronic self-consistency reached - switching on the force computation.

  End self-consistency iteration #     7       :  max(cpu_time)    wall_clock(cpu1)
  | Time for this iteration                    :        0.110 s           0.110 s
  | Charge density & force component update    :        0.030 s           0.029 s
  | Density mixing                             :        0.002 s           0.003 s
  | Hartree multipole update                   :        0.005 s           0.004 s
  | Hartree multipole summation                :        0.025 s           0.026 s
  | Integration                                :        0.044 s           0.044 s
  | Solution of K.-S. eqns.                    :        0.001 s           0.001 s
  | Total energy evaluation                    :        0.000 s           0.002 s
------------------------------------------------------------

------------------------------------------------------------
          Begin self-consistency iteration #    8

  Date     :  20190722, Time     :  142028.098
------------------------------------------------------------
  Evaluating new KS density.
  Integration grid: deviation in total charge (<rho> - N_e) =  -3.552714E-15
  Pulay mixing of updated and previous charge densities.

  Evaluating partitioned Hartree potential by multipole expansion.
  | Analytical far-field extrapolation by fixed multipoles:
  | Hartree multipole sum: apparent total charge =   0.999999E+00
  Summing up the Hartree potential.
  Time summed over all CPUs for potential: real work        0.260 s, elapsed        0.264 s
  | RMS charge density error from multipole expansion :   0.428389E-03

  Integrating Hamiltonian matrix: batch-based integration.
  Time summed over all CPUs for integration: real work        0.165 s, elapsed        0.167 s

  Updating Kohn-Sham eigenvalues, eigenvectors, occupation numbers, and Fermi level.
  Solving generalized eigenproblem
  Updating Kohn-Sham eigenvalues and eigenfunctions.
  Solving real generalised eigenvalue problem by standard LAPACK (fast)
 BIG  0.999999886245288     
 FORCED TO: now -- previous           8           9           8           9
  Determining occupation numbers for Kohn-Sham eigenstates.
  | Chemical potential (Fermi level) in eV                 : -.1658E+02
  | Error in electron count due to remaining E_F inaccuracy: 0.0000E+00

  Highest occupied state (VBM) at    -24.98879357 eV
  | Occupation number:      2.00000000

  Lowest unoccupied state (CBM) at   -18.09654650 eV
  | Occupation number:      0.50000000

  Overall HOMO-LUMO gap:      6.89224707 eV.

  Total energy components:
  | Sum of eigenvalues            :         -89.52358106 Ha       -2436.06058615 eV
  | XC energy correction          :         -16.36981320 Ha        -445.44528123 eV
  | XC potential correction       :          21.03353846 Ha         572.35170234 eV
  | Free-atom electrostatic energy:         -71.89305466 Ha       -1956.30955312 eV
  | Hartree energy correction     :           6.97138628 Ha         189.70107244 eV
  | Entropy correction            :           0.00000000 Ha           0.00000000 eV
  | ---------------------------
  | Total energy                  :        -149.78152419 Ha       -4075.76264571 eV
  | Total energy, T -> 0          :        -149.78152419 Ha       -4075.76264571 eV  <-- do not rely on this value for anything but (periodic) metals
  | Electronic free energy        :        -149.78152419 Ha       -4075.76264571 eV

  Derived energy quantities:
  | Kinetic energy                :         149.14625066 Ha        4058.47597355 eV
  | Electrostatic energy          :        -282.55796165 Ha       -7688.79333803 eV
  | Energy correction for multipole
  | error in Hartree potential    :          -0.00032651 Ha          -0.00888477 eV
  | Sum of eigenvalues per atom                           :       -1218.03029307 eV
  | Total energy (T->0) per atom                          :       -2037.88132285 eV  <-- do not rely on this value for anything but (periodic) metals
  | Electronic free energy per atom                       :       -2037.88132285 eV

  atomic forces [eV/Ang]:
  -----------------------
  atom #    1
   Hellmann-Feynman              :  0.348696E-12  0.390149E-12 -0.961904E+01
   Ionic forces                  :  0.000000E+00  0.000000E+00  0.000000E+00
   Multipole                     : -0.781077E-13 -0.402247E-13 -0.605956E-01
   Pulay + GGA                   :  0.000000E+00  0.000000E+00  0.000000E+00
   ----------------------------------------------------------------
   Total forces(   1)            :  0.270589E-12  0.349925E-12 -0.967964E+01
  atom #    2
   Hellmann-Feynman              : -0.686428E-13 -0.173690E-12  0.961904E+01
   Ionic forces                  :  0.000000E+00  0.000000E+00  0.000000E+00
   Multipole                     : -0.597438E-13  0.904655E-13  0.605956E-01
   Pulay + GGA                   :  0.000000E+00  0.000000E+00  0.000000E+00
   ----------------------------------------------------------------
   Total forces(   2)            : -0.128387E-12 -0.832242E-13  0.967964E+01


  Self-consistency convergence accuracy:
  | Change of charge density      :  0.5207E-05
  | Change of sum of eigenvalues  : -0.1000E-02 eV
  | Change of total energy        :  0.2815E-08 eV
  | Change of forces              :  0.9680E+01 eV/A

  End self-consistency iteration #     8       :  max(cpu_time)    wall_clock(cpu1)
  | Time for this iteration                    :        0.151 s           0.151 s
  | Charge density & force component update    :        0.031 s           0.029 s
  | Density mixing                             :        0.003 s           0.003 s
  | Hartree multipole update                   :        0.005 s           0.003 s
  | Hartree multipole summation                :        0.066 s           0.067 s
  | Integration                                :        0.042 s           0.042 s
  | Solution of K.-S. eqns.                    :        0.001 s           0.002 s
  | Total energy evaluation                    :        0.002 s           0.003 s
------------------------------------------------------------

------------------------------------------------------------
          Begin self-consistency iteration #    9

  Date     :  20190722, Time     :  142028.250
------------------------------------------------------------
  Evaluating new KS density and force components.
  Integration grid: deviation in total charge (<rho> - N_e) =  -3.197442E-14
  Pulay mixing of updated and previous charge densities.

  Evaluating partitioned Hartree potential by multipole expansion.
  | Analytical far-field extrapolation by fixed multipoles:
  | Hartree multipole sum: apparent total charge =   0.999999E+00
  Summing up the Hartree potential.
  Time summed over all CPUs for potential: real work        0.257 s, elapsed        0.260 s
  | RMS charge density error from multipole expansion :   0.428390E-03

  Integrating Hamiltonian matrix: batch-based integration.
  Time summed over all CPUs for integration: real work        0.164 s, elapsed        0.166 s

  Updating Kohn-Sham eigenvalues, eigenvectors, occupation numbers, and Fermi level.
  Solving generalized eigenproblem
  Updating Kohn-Sham eigenvalues and eigenfunctions.
  Solving real generalised eigenvalue problem by standard LAPACK (fast)
 BIG  0.999999940221880     
 FORCED TO: now -- previous           9           8           8           9
  Determining occupation numbers for Kohn-Sham eigenstates.
  | Chemical potential (Fermi level) in eV                 : -.1658E+02
  | Error in electron count due to remaining E_F inaccuracy: 0.0000E+00

  Highest occupied state (VBM) at    -24.98879128 eV
  | Occupation number:      2.00000000

  Lowest unoccupied state (CBM) at   -18.09654393 eV
  | Occupation number:      0.50000000

  Overall HOMO-LUMO gap:      6.89224734 eV.

  Total energy components:
  | Sum of eigenvalues            :         -89.52357977 Ha       -2436.06055083 eV
  | XC energy correction          :         -16.36981332 Ha        -445.44528442 eV
  | XC potential correction       :          21.03353862 Ha         572.35170668 eV
  | Free-atom electrostatic energy:         -71.89305466 Ha       -1956.30955312 eV
  | Hartree energy correction     :           6.97138494 Ha         189.70103598 eV
  | Entropy correction            :           0.00000000 Ha           0.00000000 eV
  | ---------------------------
  | Total energy                  :        -149.78152419 Ha       -4075.76264571 eV
  | Total energy, T -> 0          :        -149.78152419 Ha       -4075.76264571 eV  <-- do not rely on this value for anything but (periodic) metals
  | Electronic free energy        :        -149.78152419 Ha       -4075.76264571 eV

  Derived energy quantities:
  | Kinetic energy                :         149.14624877 Ha        4058.47592200 eV
  | Electrostatic energy          :        -282.55795964 Ha       -7688.79328329 eV
  | Energy correction for multipole
  | error in Hartree potential    :          -0.00032651 Ha          -0.00888475 eV
  | Sum of eigenvalues per atom                           :       -1218.03027541 eV
  | Total energy (T->0) per atom                          :       -2037.88132285 eV  <-- do not rely on this value for anything but (periodic) metals
  | Electronic free energy per atom                       :       -2037.88132285 eV

  atomic forces [eV/Ang]:
  -----------------------
  atom #    1
   Hellmann-Feynman              :  0.492755E-12  0.195140E-13 -0.961911E+01
   Ionic forces                  :  0.000000E+00  0.000000E+00  0.000000E+00
   Multipole                     :  0.412547E-13  0.157081E-13 -0.605957E-01
   Pulay + GGA                   : -0.196960E-12 -0.799259E-13  0.163295E+02
   ----------------------------------------------------------------
   Total forces(   1)            :  0.337049E-12 -0.447038E-13  0.664981E+01
  atom #    2
   Hellmann-Feynman              :  0.374084E-12  0.455222E-13  0.961911E+01
   Ionic forces                  :  0.000000E+00  0.000000E+00  0.000000E+00
   Multipole                     :  0.165803E-12 -0.874368E-13  0.605957E-01
   Pulay + GGA                   : -0.496683E-12  0.285450E-13 -0.163295E+02
   ----------------------------------------------------------------
   Total forces(   2)            :  0.432047E-13 -0.133696E-13 -0.664981E+01


  Self-consistency convergence accuracy:
  | Change of charge density      :  0.4051E-06
  | Change of sum of eigenvalues  :  0.3532E-04 eV
  | Change of total energy        : -0.1067E-09 eV
  | Change of forces              :  0.6654E-04 eV/A

  End self-consistency iteration #     9       :  max(cpu_time)    wall_clock(cpu1)
  | Time for this iteration                    :        0.217 s           0.217 s
  | Charge density & force component update    :        0.100 s           0.100 s
  | Density mixing                             :        0.003 s           0.003 s
  | Hartree multipole update                   :        0.004 s           0.003 s
  | Hartree multipole summation                :        0.066 s           0.066 s
  | Integration                                :        0.042 s           0.042 s
  | Solution of K.-S. eqns.                    :        0.001 s           0.001 s
  | Total energy evaluation                    :        0.001 s           0.002 s
------------------------------------------------------------

------------------------------------------------------------
          Begin self-consistency iteration #   10

  Date     :  20190722, Time     :  142028.474
------------------------------------------------------------
  Evaluating new KS density and force components.
  Integration grid: deviation in total charge (<rho> - N_e) =  -3.552714E-15
  Pulay mixing of updated and previous charge densities.

  Evaluating partitioned Hartree potential by multipole expansion.
  | Analytical far-field extrapolation by fixed multipoles:
  | Hartree multipole sum: apparent total charge =   0.999999E+00
  Summing up the Hartree potential.
  Time summed over all CPUs for potential: real work        0.258 s, elapsed        0.262 s
  | RMS charge density error from multipole expansion :   0.428390E-03

  Integrating Hamiltonian matrix: batch-based integration.
  Time summed over all CPUs for integration: real work        0.166 s, elapsed        0.168 s

  Updating Kohn-Sham eigenvalues, eigenvectors, occupation numbers, and Fermi level.
  Solving generalized eigenproblem
  Updating Kohn-Sham eigenvalues and eigenfunctions.
  Solving real generalised eigenvalue problem by standard LAPACK (fast)
 BIG  0.999999996966297     
 FORCED TO: now -- previous           9           8           9           8
  Determining occupation numbers for Kohn-Sham eigenstates.
  | Chemical potential (Fermi level) in eV                 : -.1658E+02
  | Error in electron count due to remaining E_F inaccuracy: 0.0000E+00

  Highest occupied state (VBM) at    -24.98879114 eV
  | Occupation number:      2.00000000

  Lowest unoccupied state (CBM) at   -18.09654378 eV
  | Occupation number:      0.50000000

  Overall HOMO-LUMO gap:      6.89224736 eV.

  Total energy components:
  | Sum of eigenvalues            :         -89.52357968 Ha       -2436.06054840 eV
  | XC energy correction          :         -16.36981333 Ha        -445.44528462 eV
  | XC potential correction       :          21.03353863 Ha         572.35170693 eV
  | Free-atom electrostatic energy:         -71.89305466 Ha       -1956.30955312 eV
  | Hartree energy correction     :           6.97138484 Ha         189.70103349 eV
  | Entropy correction            :           0.00000000 Ha           0.00000000 eV
  | ---------------------------
  | Total energy                  :        -149.78152419 Ha       -4075.76264571 eV
  | Total energy, T -> 0          :        -149.78152419 Ha       -4075.76264571 eV  <-- do not rely on this value for anything but (periodic) metals
  | Electronic free energy        :        -149.78152419 Ha       -4075.76264571 eV

  Derived energy quantities:
  | Kinetic energy                :         149.14624882 Ha        4058.47592345 eV
  | Electrostatic energy          :        -282.55795969 Ha       -7688.79328454 eV
  | Energy correction for multipole
  | error in Hartree potential    :          -0.00032651 Ha          -0.00888475 eV
  | Sum of eigenvalues per atom                           :       -1218.03027420 eV
  | Total energy (T->0) per atom                          :       -2037.88132285 eV  <-- do not rely on this value for anything but (periodic) metals
  | Electronic free energy per atom                       :       -2037.88132285 eV

  atomic forces [eV/Ang]:
  -----------------------
  atom #    1
   Hellmann-Feynman              :  0.383475E-12  0.276997E-13 -0.961910E+01
   Ionic forces                  :  0.000000E+00  0.000000E+00  0.000000E+00
   Multipole                     : -0.551118E-13  0.190988E-12 -0.605957E-01
   Pulay + GGA                   :  0.164847E-12 -0.353958E-12  0.163295E+02
   ----------------------------------------------------------------
   Total forces(   1)            :  0.493210E-12 -0.135270E-12  0.664984E+01
  atom #    2
   Hellmann-Feynman              :  0.296620E-12  0.143825E-12  0.961910E+01
   Ionic forces                  :  0.000000E+00  0.000000E+00  0.000000E+00
   Multipole                     :  0.300893E-13 -0.572182E-13  0.605957E-01
   Pulay + GGA                   : -0.256905E-12  0.215515E-12 -0.163295E+02
   ----------------------------------------------------------------
   Total forces(   2)            :  0.698049E-13  0.302122E-12 -0.664984E+01


  Self-consistency convergence accuracy:
  | Change of charge density      :  0.1828E-07
  | Change of sum of eigenvalues  :  0.2424E-05 eV
  | Change of total energy        : -0.5414E-11 eV
  | Change of forces              :  0.5750E-05 eV/A

  Writing Kohn-Sham eigenvalues.

  State    Occupation    Eigenvalue [Ha]    Eigenvalue [eV]
      1       2.00000         -19.414670         -528.30006
      2       2.00000         -19.414592         -528.29794
      3       2.00000          -1.661796          -45.21978
      4       2.00000          -1.173236          -31.92538
      5       2.00000          -0.928334          -25.26126
      6       2.00000          -0.918321          -24.98879
      7       2.00000          -0.918321          -24.98879
      8       0.50000          -0.665036          -18.09654
      9       0.50000          -0.665036          -18.09654
     10       0.00000          -0.289643           -7.88159
     11       0.00000          -0.158218           -4.30534
     12       0.00000          -0.110452           -3.00555
     13       0.00000          -0.110452           -3.00555
     14       0.00000          -0.087141           -2.37122

  Highest occupied state (VBM) at    -24.98879114 eV
  | Occupation number:      2.00000000

  Lowest unoccupied state (CBM) at   -18.09654378 eV
  | Occupation number:      0.50000000

  Overall HOMO-LUMO gap:      6.89224736 eV.

  Self-consistency cycle converged.

  End self-consistency iteration #    10       :  max(cpu_time)    wall_clock(cpu1)
  | Time for this iteration                    :        0.219 s           0.220 s
  | Charge density & force component update    :        0.099 s           0.100 s
  | Density mixing                             :        0.003 s           0.003 s
  | Hartree multipole update                   :        0.005 s           0.004 s
  | Hartree multipole summation                :        0.066 s           0.066 s
  | Integration                                :        0.042 s           0.042 s
  | Solution of K.-S. eqns.                    :        0.002 s           0.002 s
  | Total energy evaluation                    :        0.001 s           0.002 s
------------------------------------------------------------
  Writing cluster restart information to file restart
  Removing unitary transformations (pure translations, rotations) from forces on atoms.
  Atomic forces before filtering:
  | Net force on center of mass :   0.563015E-12  0.166852E-12 -0.201014E-09 eV/A
  | Net torque on center of mass:  -0.264075E-12 -0.255631E-12  0.000000E+00 eV
  Atomic forces after filtering:
  | Net force on center of mass :   0.405649E-28  0.202824E-28  0.000000E+00 eV/A
  | Net torque on center of mass:  -0.244910E-28 -0.244910E-28  0.000000E+00 eV

  Energy and forces in a compact form:
  | Total energy uncorrected      :         -0.407576264570873E+04 eV
  | Total energy corrected        :         -0.407576264570873E+04 eV  <-- do not rely on this value for anything but (periodic) metals
  | Electronic free energy        :         -0.407576264570873E+04 eV
  Total atomic forces (unitary forces cleaned) [eV/Ang]:
  |   1          0.405648561641326E-28         -0.101412140410332E-28          0.664984417387949E+01
  |   2          0.000000000000000E+00          0.304236421230995E-28         -0.664984417387949E+01

  ------------------------------------ 
  Start decomposition of the XC Energy 
  ------------------------------------ 
  Hartree-Fock part   :          0.000000000 Ha              0.000000000 eV
  ------------------------------------ 
  X Energy            :        -15.872250433 Ha           -431.905909400 eV
  C Energy GGA        :         -0.497562894 Ha            -13.539375215 eV
  Total XC Energy     :        -16.369813326 Ha           -445.445284615 eV
  LDA X and C from self-consistent density 
[...]
  | Density mixing                             :        0.001 s           0.002 s
  | Hartree multipole update                   :        0.004 s           0.004 s
  | Hartree multipole summation                :        0.065 s           0.065 s
  | Integration                                :        0.044 s           0.043 s
  | Solution of K.-S. eqns.                    :        0.001 s           0.001 s
  | Total energy evaluation                    :        0.001 s           0.002 s
------------------------------------------------------------

------------------------------------------------------------
          Begin self-consistency iteration #    5

  Date     :  20190722, Time     :  142034.531
------------------------------------------------------------
  Evaluating new KS density and force components.
  Integration grid: deviation in total charge (<rho> - N_e) =   3.552714E-14
  Pulay mixing of updated and previous charge densities.

  Evaluating partitioned Hartree potential by multipole expansion.
  | Analytical far-field extrapolation by fixed multipoles:
  | Hartree multipole sum: apparent total charge =   0.999999E+00
  Summing up the Hartree potential.
  Time summed over all CPUs for potential: real work        0.258 s, elapsed        0.260 s
  | RMS charge density error from multipole expansion :   0.495334E-03

  Integrating Hamiltonian matrix: batch-based integration.
  Time summed over all CPUs for integration: real work        0.166 s, elapsed        0.169 s

  Updating Kohn-Sham eigenvalues, eigenvectors, occupation numbers, and Fermi level.
  Solving generalized eigenproblem
  Updating Kohn-Sham eigenvalues and eigenfunctions.
  Solving real generalised eigenvalue problem by standard LAPACK (fast)
 BIG  0.790638626492119     
 FORCED TO: now -- previous           9           8           9           8
  Determining occupation numbers for Kohn-Sham eigenstates.
  | Chemical potential (Fermi level) in eV                 : -.2499E+02
  | Error in electron count due to remaining E_F inaccuracy: 0.0000E+00

  Highest occupied state (VBM) at    -25.61030512 eV
  | Occupation number:      2.00000000

  Lowest unoccupied state (CBM) at   -17.43651799 eV
  | Occupation number:      0.50000000

  Overall HOMO-LUMO gap:      8.17378712 eV.

  Total energy components:
  | Sum of eigenvalues            :         -89.79638724 Ha       -2443.48401998 eV
  | XC energy correction          :         -16.45369409 Ha        -447.72779633 eV
  | XC potential correction       :          21.14564543 Ha         575.40228836 eV
  | Free-atom electrostatic energy:         -71.50994279 Ha       -1945.88454893 eV
  | Hartree energy correction     :           6.82129768 Ha         185.61695406 eV
  | Entropy correction            :           0.00000000 Ha           0.00000000 eV
  | ---------------------------
  | Total energy                  :        -149.79308101 Ha       -4076.07712282 eV
  | Total energy, T -> 0          :        -149.79308101 Ha       -4076.07712282 eV  <-- do not rely on this value for anything but (periodic) metals
  | Electronic free energy        :        -149.79308101 Ha       -4076.07712282 eV

  Derived energy quantities:
  | Kinetic energy                :         149.45659019 Ha        4066.92074167 eV
  | Electrostatic energy          :        -282.79597711 Ha       -7695.27006816 eV
  | Energy correction for multipole
  | error in Hartree potential    :          -0.00054343 Ha          -0.01478754 eV
  | Sum of eigenvalues per atom                           :       -1221.74200999 eV
  | Total energy (T->0) per atom                          :       -2038.03856141 eV  <-- do not rely on this value for anything but (periodic) metals
  | Electronic free energy per atom                       :       -2038.03856141 eV

  atomic forces [eV/Ang]:
  -----------------------
  atom #    1
   Hellmann-Feynman              :  0.583624E-12  0.462835E-12 -0.155923E+02
   Ionic forces                  :  0.000000E+00  0.000000E+00  0.000000E+00
   Multipole                     : -0.379113E-15 -0.147124E-12 -0.593845E-01
   Pulay + GGA                   : -0.208378E-12 -0.493828E-12  0.156517E+02
   ----------------------------------------------------------------
   Total forces(   1)            :  0.374867E-12 -0.178117E-12  0.222996E-05
  atom #    2
   Hellmann-Feynman              :  0.179378E-12 -0.903645E-13  0.155923E+02
   Ionic forces                  :  0.000000E+00  0.000000E+00  0.000000E+00
   Multipole                     :  0.139324E-13  0.933412E-13  0.593845E-01
   Pulay + GGA                   :  0.151288E-12  0.171270E-12 -0.156517E+02
   ----------------------------------------------------------------
   Total forces(   2)            :  0.344598E-12  0.174247E-12 -0.213011E-05


  Self-consistency convergence accuracy:
  | Change of charge density      :  0.9032E-07
  | Change of sum of eigenvalues  :  0.1081E-05 eV
  | Change of total energy        : -0.6264E-10 eV
  | Change of forces              :  0.3545E-04 eV/A

  End self-consistency iteration #     5       :  max(cpu_time)    wall_clock(cpu1)
  | Time for this iteration                    :        0.218 s           0.218 s
  | Charge density & force component update    :        0.100 s           0.100 s
  | Density mixing                             :        0.002 s           0.002 s
  | Hartree multipole update                   :        0.004 s           0.004 s
  | Hartree multipole summation                :        0.066 s           0.065 s
  | Integration                                :        0.042 s           0.043 s
  | Solution of K.-S. eqns.                    :        0.002 s           0.002 s
  | Total energy evaluation                    :        0.001 s           0.001 s
------------------------------------------------------------

------------------------------------------------------------
          Begin self-consistency iteration #    6

  Date     :  20190722, Time     :  142034.749
------------------------------------------------------------
  Evaluating new KS density and force components.
  Integration grid: deviation in total charge (<rho> - N_e) =   1.776357E-14
  Pulay mixing of updated and previous charge densities.

  Evaluating partitioned Hartree potential by multipole expansion.
  | Analytical far-field extrapolation by fixed multipoles:
  | Hartree multipole sum: apparent total charge =   0.999999E+00
  Summing up the Hartree potential.
  Time summed over all CPUs for potential: real work        0.259 s, elapsed        0.260 s
  | RMS charge density error from multipole expansion :   0.495334E-03

  Integrating Hamiltonian matrix: batch-based integration.
  Time summed over all CPUs for integration: real work        0.166 s, elapsed        0.169 s

  Updating Kohn-Sham eigenvalues, eigenvectors, occupation numbers, and Fermi level.
  Solving generalized eigenproblem
  Updating Kohn-Sham eigenvalues and eigenfunctions.
  Solving real generalised eigenvalue problem by standard LAPACK (fast)
 BIG  0.999988437485183     
 FORCED TO: now -- previous           8           9           9           8
  Determining occupation numbers for Kohn-Sham eigenstates.
  | Chemical potential (Fermi level) in eV                 : -.2499E+02
  | Error in electron count due to remaining E_F inaccuracy: 0.0000E+00

  Highest occupied state (VBM) at    -25.61030512 eV
  | Occupation number:      2.00000000

  Lowest unoccupied state (CBM) at   -17.43651799 eV
  | Occupation number:      0.50000000

  Overall HOMO-LUMO gap:      8.17378713 eV.

  Total energy components:
  | Sum of eigenvalues            :         -89.79638724 Ha       -2443.48401995 eV
  | XC energy correction          :         -16.45369409 Ha        -447.72779633 eV
  | XC potential correction       :          21.14564543 Ha         575.40228836 eV
  | Free-atom electrostatic energy:         -71.50994279 Ha       -1945.88454893 eV
  | Hartree energy correction     :           6.82129768 Ha         185.61695404 eV
  | Entropy correction            :           0.00000000 Ha           0.00000000 eV
  | ---------------------------
  | Total energy                  :        -149.79308101 Ha       -4076.07712282 eV
  | Total energy, T -> 0          :        -149.79308101 Ha       -4076.07712282 eV  <-- do not rely on this value for anything but (periodic) metals
  | Electronic free energy        :        -149.79308101 Ha       -4076.07712282 eV

  Derived energy quantities:
  | Kinetic energy                :         149.45659019 Ha        4066.92074164 eV
  | Electrostatic energy          :        -282.79597711 Ha       -7695.27006813 eV
  | Energy correction for multipole
  | error in Hartree potential    :          -0.00054343 Ha          -0.01478754 eV
  | Sum of eigenvalues per atom                           :       -1221.74200998 eV
  | Total energy (T->0) per atom                          :       -2038.03856141 eV  <-- do not rely on this value for anything but (periodic) metals
  | Electronic free energy per atom                       :       -2038.03856141 eV

  atomic forces [eV/Ang]:
  -----------------------
  atom #    1
   Hellmann-Feynman              :  0.492749E-12  0.665284E-12 -0.155923E+02
   Ionic forces                  :  0.000000E+00  0.000000E+00  0.000000E+00
   Multipole                     : -0.456051E-14 -0.580182E-13 -0.593845E-01
   Pulay + GGA                   : -0.542355E-13 -0.790696E-12  0.156517E+02
   ----------------------------------------------------------------
   Total forces(   1)            :  0.433953E-12 -0.183430E-12  0.870404E-06
  atom #    2
   Hellmann-Feynman              :  0.523914E-13 -0.200294E-13  0.155923E+02
   Ionic forces                  :  0.000000E+00  0.000000E+00  0.000000E+00
   Multipole                     :  0.899446E-13 -0.217154E-13  0.593845E-01
   Pulay + GGA                   :  0.362521E-12 -0.365376E-12 -0.156517E+02
   ----------------------------------------------------------------
   Total forces(   2)            :  0.504857E-12 -0.407121E-12 -0.883168E-06


  Self-consistency convergence accuracy:
  | Change of charge density      :  0.7062E-08
  | Change of sum of eigenvalues  :  0.2101E-07 eV
  | Change of total energy        : -0.1547E-11 eV
  | Change of forces              :  0.2401E-06 eV/A

  Writing Kohn-Sham eigenvalues.

  State    Occupation    Eigenvalue [Ha]    Eigenvalue [eV]
      1       2.00000         -19.412611         -528.24401
      2       2.00000         -19.412392         -528.23807
      3       2.00000          -1.743893          -47.45375
      4       2.00000          -1.151970          -31.34669
      5       2.00000          -0.957888          -26.06546
      6       2.00000          -0.957888          -26.06546
      7       2.00000          -0.941161          -25.61031
      8       0.50000          -0.640780          -17.43652
      9       0.50000          -0.640780          -17.43652
     10       0.00000          -0.181162           -4.92966
     11       0.00000          -0.160859           -4.37719
     12       0.00000          -0.115282           -3.13698
     13       0.00000          -0.115282           -3.13698
     14       0.00000          -0.061530           -1.67431

  Highest occupied state (VBM) at    -25.61030512 eV
  | Occupation number:      2.00000000

  Lowest unoccupied state (CBM) at   -17.43651799 eV
  | Occupation number:      0.50000000

  Overall HOMO-LUMO gap:      8.17378713 eV.

  Self-consistency cycle converged.

  End self-consistency iteration #     6       :  max(cpu_time)    wall_clock(cpu1)
  | Time for this iteration                    :        0.216 s           0.217 s
  | Charge density & force component update    :        0.099 s           0.099 s
  | Density mixing                             :        0.001 s           0.002 s
  | Hartree multipole update                   :        0.005 s           0.004 s
  | Hartree multipole summation                :        0.066 s           0.066 s
  | Integration                                :        0.043 s           0.042 s
  | Solution of K.-S. eqns.                    :        0.001 s           0.001 s
  | Total energy evaluation                    :        0.001 s           0.001 s
------------------------------------------------------------
  Writing cluster restart information to file restart
  Removing unitary transformations (pure translations, rotations) from forces on atoms.
  Atomic forces before filtering:
  | Net force on center of mass :   0.938810E-12 -0.590551E-12 -0.127634E-07 eV/A
  | Net torque on center of mass:   0.125578E-12  0.398051E-13 -0.330900E-91 eV
  Atomic forces after filtering:
  | Net force on center of mass :   0.162259E-27 -0.811297E-28  0.000000E+00 eV/A
  | Net torque on center of mass:   0.000000E+00 -0.910910E-28  0.185384-105 eV

  Energy and forces in a compact form:
  | Total energy uncorrected      :         -0.407607712281904E+04 eV
  | Total energy corrected        :         -0.407607712281904E+04 eV  <-- do not rely on this value for anything but (periodic) metals
  | Electronic free energy        :         -0.407607712281904E+04 eV
  Total atomic forces (unitary forces cleaned) [eV/Ang]:
  |   1          0.162259424656531E-27         -0.405648561641326E-28          0.876786025880680E-06
  |   2          0.000000000000000E+00         -0.405648561641326E-28         -0.876786025880680E-06

  ------------------------------------ 
  Start decomposition of the XC Energy 
  ------------------------------------ 
  Hartree-Fock part   :          0.000000000 Ha              0.000000000 eV
  ------------------------------------ 
  X Energy            :        -15.950253167 Ha           -434.028471802 eV
  C Energy GGA        :         -0.503440923 Ha            -13.699324529 eV
  Total XC Energy     :        -16.453694090 Ha           -447.727796331 eV
  LDA X and C from self-consistent density 
  X Energy LDA        :        -14.465849962 Ha           -393.635805425 eV
  C Energy LDA        :         -1.061660501 Ha            -28.889252105 eV
  ------------------------------------ 
  End decomposition of the XC Energy 
  ------------------------------------ 
  Relaxation / MD: End force evaluation.       :  max(cpu_time)    wall_clock(cpu1)
  | Time for this force evaluation             :        1.087 s           1.180 s

------------------------------------------------------------
  Geometry optimization: Attempting to predict improved coordinates.

  Removing unitary transformations (pure translations, rotations) from forces on atoms.
  Atomic forces before filtering:
  | Net force on center of mass :   0.162259E-27 -0.811297E-28  0.000000E+00 eV/A
  | Net torque on center of mass:   0.000000E+00 -0.910910E-28  0.185384-105 eV
  Atomic forces after filtering:
  | Net force on center of mass :   0.540432E-43 -0.225180E-43  0.000000E+00 eV/A
  | Net torque on center of mass:   0.758485E-44 -0.101131E-43  0.234761-121 eV
  Net remaining forces (excluding translations, rotations) in present geometry:
  Maximum force component is  0.876786E-06 eV/A.
  Present geometry is converged.

------------------------------------------------------------
  Final atomic structure:
                         x [A]             y [A]             z [A]
            atom        -0.00000000        0.00000000        0.04235893  O
            atom        -0.00000000        0.00000000        1.16514107  O
------------------------------------------------------------

------------------------------------------------------------------------------
  Final output of selected total energy values:

  The following output summarizes some interesting total energy values
  at the end of a run (AFTER all relaxation, molecular dynamics, etc.).

  | Total energy of the DFT / Hartree-Fock s.c.f. calculation      :          -4076.077122819 eV
  | Final zero-broadening corrected energy (caution - metals only) :          -4076.077122819 eV
  | For reference only, the value of 1 Hartree used in FHI-aims is :             27.211384500 eV

  Before relying on these values, please be sure to understand exactly which
  total energy value is referred to by a given number. Different objects may
  all carry the same name 'total energy'. Definitions:

  Total energy of the DFT / Hartree-Fock s.c.f. calculation:
  | Note that this energy does not include ANY quantities calculated after the
  | s.c.f. cycle, in particular not ANY RPA, MP2, etc. many-body perturbation terms.

  Final zero-broadening corrected energy:
  | For metallic systems only, a broadening of the occupation numbers at the Fermi
  | level can be extrapolated back to zero broadening by an electron-gas inspired
  | formula. For all systems that are not real metals, this value can be
  | meaningless and should be avoided.

------------------------------------------------------------------------------
  Methods described in the following list of references were used in this FHI-aims run.
  If you publish the results, please make sure to cite these reference if they apply.
  FHI-aims is an academic code, and for our developers (often, Ph.D. students
  and postdocs), scientific credit in the community is essential.
  Thank you for helping us!

  For any use of FHI-aims, please cite:

    Volker Blum, Ralf Gehrke, Felix Hanke, Paula Havu, Ville Havu,
    Xinguo Ren, Karsten Reuter, and Matthias Scheffler
    'Ab initio molecular simulations with numeric atom-centered orbitals'
    Computer Physics Communications 180, 2175-2196 (2009)
    http://dx.doi.org/10.1016/j.cpc.2009.06.022


  For the real-space grid partitioning and parallelization used in this calculation, please cite:

    Ville Havu, Volker Blum, Paula Havu, and Matthias Scheffler,
    'Efficient O(N) integration for all-electron electronic structure calculation'
    'using numerically tabulated basis functions'
    Journal of Computational Physics 228, 8367-8379 (2009).
    http://dx.doi.org/10.1016/j.jcp.2009.08.008

  Of course, there are many other important community references, e.g., those cited in the
  above references. Our list is limited to references that describe implementations in the
  FHI-aims code. The reason is purely practical (length of this list) - please credit others as well.

------------------------------------------------------------
          Leaving FHI-aims.
          Date     :  20190722, Time     :  142035.078

          Computational steps:
          | Number of self-consistency cycles          :           52
          | Number of relaxation steps                 :            5

          Detailed time accounting                     :  max(cpu_time)    wall_clock(cpu1)
          | Total time                                 :        8.114 s           8.523 s
          | Preparation time                           :        0.148 s           0.374 s
          | Grid partitioning                          :        0.145 s           0.121 s
          | Preloading free-atom quantities on grid    :        0.059 s           0.057 s
          | Free-atom superposition energy             :        0.053 s           0.055 s
          | Total time for integrations                :        2.395 s           2.388 s
          | Total time for solution of K.-S. equations :        0.107 s           0.151 s
          | Total time for EV reorthonormalization     :        0.002 s           0.002 s
          | Total time for density & force components  :        2.431 s           2.419 s
          | Total time for mixing                      :        0.098 s           0.106 s
          | Total time for Hartree multipole update    :        0.229 s           0.206 s
          | Total time for Hartree multipole sum       :        2.092 s           2.084 s
          | Total time for total energy evaluation     :        0.032 s           0.062 s

          Have a nice day.
------------------------------------------------------------
