  MPI-parallelism will be employed.
------------------------------------------------------------
          Invoking FHI-aims ...
          Version 160328_3
          Compiled on 2019/06/10 at 14:55:49 on host taito-login3.csc.fi.

          When using FHI-aims, please cite the following reference:

          Volker Blum, Ralf Gehrke, Felix Hanke, Paula Havu,
          Ville Havu, Xinguo Ren, Karsten Reuter, and Matthias Scheffler,
          'Ab Initio Molecular Simulations with Numeric Atom-Centered Orbitals',
          Computer Physics Communications 180, 2175-2196 (2009)

          For any questions about FHI-aims, please visit the aimsclub website
          with its forums and wiki. Contributions to both the forums and the
          wiki are warmly encouraged - they are for you, and everyone is welcome there.

------------------------------------------------------------

  Date     :  20190722, Time     :  144436.605
  Time zero on CPU 1             :   0.579900000000000E-01  s.
  Internal wall clock time zero  :           333038676.605  s.

  Using        4 parallel tasks.
  Task        0 on host c798 reporting.
  Task        1 on host c798 reporting.
  Task        2 on host c798 reporting.
  Task        3 on host c798 reporting.

  Performing system and environment tests:
  | Environment variable OMP_NUM_THREADS correctly set to 1.
  | Maximum stacksize for task 0: unlimited
  | Maximum stacksize for task 1: unlimited
  | Maximum stacksize for task 2: unlimited
  | Maximum stacksize for task 3: unlimited
  | Current stacksize for task 0: 1024 [Mb]
  | Current stacksize for task 1: 1024 [Mb]
  | Current stacksize for task 2: 1024 [Mb]
  | Current stacksize for task 3: 1024 [Mb]
  | Checking for scalapack...
  | No scalapack compiled in.

  Obtaining array dimensions for all initial allocations:
  
  -----------------------------------------------------------------------
  Parsing control.in (first pass over file, find array dimensions only).
  The contents of control.in will be repeated verbatim below
  unless switched off by setting 'verbatim_writeout .false.' .
  in the first line of control.in .
  -----------------------------------------------------------------------
  
    #  Physical model settings
    #
  
    xc                            pbe
    charge                        1.0
    relativistic                  none
  #  default_initial_moment        0.0
    spin                          none
  #  vdw_correction_hirshfeld
  
    #  SCF convergence settings
    #
  
    sc_accuracy_rho               1E-4
    sc_accuracy_eev               1E-2
    sc_accuracy_etot              1E-8
    sc_iter_limit                 100
  
    #  Occupation settings
    #
  
    restart                       restart
  #  force_occupation_projector      6 1 1.0 6 7 # ion 3
  
    #  Relaxation
    #
  
    ###########relax_geometry                bfgs    1.e-4
  
  
  ################################################################################
  #
  #  FHI-aims code project
  #  VB, Fritz-Haber Institut, 2007
  #
  #  Suggested "safe" defaults for O atom (to be pasted into control.in file)
  #
  ################################################################################
    species        O
  #     global species definitions
      nucleus             8
      mass                15.9994
  #
      l_hartree           8
  #
      cut_pot             4.0  2.0  1.0
      basis_dep_cutoff    0.d0
  #
      radial_base         36 7.0
      radial_multiplier   2
       angular_grids specified
        division   0.4087  110
        division   0.5181  194
        division   0.6184  302
        division   0.7315  434
        division   0.7934  590
  #      division   0.9656  770
  #      division   1.4041  974
  #      outer_grid 974
        outer_grid 590
  ################################################################################
  #
  #  Definition of "minimal" basis
  #
  ################################################################################
  #     valence basis states
      valence      2  s   2.
      valence      2  p   4.
  #     ion occupancy
      ion_occ      2  s   1.
      ion_occ      2  p   3.
  ################################################################################
  #
  #  Suggested additional basis functions. For production calculations,
  #  uncomment them one after another (the most important basis functions are
  #  listed first).
  #
  #  Constructed for dimers: 1.0 A, 1.208 A, 1.5 A, 2.0 A, 3.0 A
  #
  ################################################################################
  #  "First tier" - improvements: -699.05 meV to -159.38 meV
       hydro 2 p 1.8
       hydro 3 d 7.6
       hydro 3 s 6.4
  #  "Second tier" - improvements: -49.91 meV to -5.39 meV
       hydro 4 f 11.6
       hydro 3 p 6.2
       hydro 3 d 5.6
       hydro 5 g 17.6
       hydro 1 s 0.75
  #  "Third tier" - improvements: -2.83 meV to -0.50 meV
  #     ionic 2 p auto
  #     hydro 4 f 10.8
  #     hydro 4 d 4.7
  #     hydro 2 s 6.8
  #  "Fourth tier" - improvements: -0.40 meV to -0.12 meV
  #     hydro 3 p 5
  #     hydro 3 s 3.3
  #     hydro 5 g 15.6
  #     hydro 4 f 17.6
  #     hydro 4 d 14
  # Further basis functions - -0.08 meV and below
  #     hydro 3 s 2.1
  #     hydro 4 d 11.6
  #     hydro 3 p 16
  #     hydro 2 s 17.2
  compute_forces .true.
  final_forces_cleaned .true.
  output dipole
  
  -----------------------------------------------------------------------
  Completed first pass over input file control.in .
  -----------------------------------------------------------------------
  
  
  -----------------------------------------------------------------------
  Parsing geometry.in (first pass over file, find array dimensions only).
  The contents of geometry.in will be repeated verbatim below
  unless switched off by setting 'verbatim_writeout .false.' .
  in the first line of geometry.in .
  -----------------------------------------------------------------------
  
  #
  # temporary structure-file for finite-difference calculation of forces
  # displacement  -0.0025 of \# atom     1 direction     2
  #
  atom    0.00000000   -0.00000000    0.04235920   O
  atom   -0.00000000   -0.00000000    1.16264080   O
  
  -----------------------------------------------------------------------
  Completed first pass over input file geometry.in .
  -----------------------------------------------------------------------
  

  Basic array size parameters:
  | Number of species                 :        1
  | Number of atoms                   :        2
  | Max. basis fn. angular momentum   :        4
  | Max. atomic/ionic basis occupied n:        2
  | Max. number of basis fn. types    :        2
  | Max. radial fns per species/type  :        8
  | Max. logarithmic grid size        :     1301
  | Max. radial integration grid size :       73
  | Max. angular integration grid size:      590
  | Max. angular grid division number :        8
  | Radial grid for Hartree potential :     1301
  | Number of spin channels           :        1

------------------------------------------------------------
          Reading file control.in.
------------------------------------------------------------
  XC: Using PBE gradient-corrected functionals.
  Charged system requested: Charge =   0.100000E+01.
  Non-relativistic treatment of kinetic energy.
  Spin treatment: No spin polarisation.
  Convergence accuracy of self-consistent charge density:  0.1000E-03
  Convergence accuracy of sum of eigenvalues:  0.1000E-01
  Convergence accuracy of total energy:  0.1000E-07
  Maximum number of s.-c. iterations  :   100
  Restart file specified as : restart
  | Reading information from existing file.
 
  Reading configuration options for species O                   .
  | Found nuclear charge :   8.0000
  | Found atomic mass :    15.9994000000000      amu
  | Found l_max for Hartree potential  :   8
  | Found cutoff potl. onset [A], width [A], scale factor :    4.00000    2.00000    1.00000
  | Threshold for basis-dependent cutoff potential is   0.000000E+00
  | Found data for basic radial integration grid :    36 points, outermost radius =    7.000 A
  | Found multiplier for basic radial grid :   2
  | Found angular grid specification: user-specified.
  | Specified grid contains     6 separate shells.
  | Check grid settings after all constraints further below.
  | Found free-atom valence shell :  2 s   2.000
  | Found free-atom valence shell :  2 p   4.000
  | No ionic wave fns used. Skipping ion_occ.
  | No ionic wave fns used. Skipping ion_occ.
  | Found hydrogenic basis function :  2 p   1.800
  | Found hydrogenic basis function :  3 d   7.600
  | Found hydrogenic basis function :  3 s   6.400
  | Found hydrogenic basis function :  4 f  11.600
  | Found hydrogenic basis function :  3 p   6.200
  | Found hydrogenic basis function :  3 d   5.600
  | Found hydrogenic basis function :  5 g  17.600
  | Found hydrogenic basis function :  1 s   0.750
  Species O                   : Missing cutoff potential type.
  Defaulting to exp(1/x)/(1-x)^2 type cutoff potential.
  Species O : No 'logarithmic' tag. Using default grid for free atom:
  | Default logarithmic grid data [bohr] : 0.1000E-03 0.1000E+03 0.1012E+01
  Species O : On-site basis accuracy parameter (for Gram-Schmidt orthonormalisation) not specified.
  Using default value basis_acc =  0.1000000E-03.
  Species O                   : Using default innermost maximum threshold i_radial=  2 for radial functions.
  Species O                   : Default cutoff onset for free atom density etc. : 0.40000000E+01 AA.
  Species O                   : Basic radial grid will be enhanced according to radial_multiplier =   2, to contain    73 grid points.
  Forces will be computed.
  Cleaning forces before final output.
  Dipole moment will be written out.
 
  Finished reading input file 'control.in'. Consistency checks are next.
 
  Target number of points in a grid batch is not set. Defaulting to  100
  Method for grid partitioning is not set. Defaulting to parallel hash+maxmin partitioning.
  Batch size limit is not set. Defaulting to    200
  By default, will store active basis functions for each batch.
  If in need of memory, prune_basis_once .false. can be used to disable this option.
  communication_type for Hartree potential was not specified.
  Defaulting to calc_hartree .
  Defaulting to Pulay charge density mixer.
  Pulay mixer: Number of relevant iterations not set.
  Defaulting to    8 iterations.
  Pulay mixer: Number of initial linear mixing iterations not set.
  Defaulting to    0 iterations.
  Work space size for distributed Hartree potential not set.
  Defaulting to   0.200000E+03 MB.
  Mixing parameter for charge density mixing has not been set.
  Using default: charge_mix_param =     0.2000.
  Algorithm-dependent basis array size parameters:
  | n_max_pulay                         :        8
  Geometry relaxation not requested: no relaxation will be performed.
  Force calculation: scf convergence accuracy of forces not set.
  Defaulting to  0.1000E-03 eV/A.
  Handling of forces: Unphysical translation and rotation will be removed from forces.
  No accuracy limit for integral partition fn. given. Defaulting to  0.1000E-14.
  No threshold value for u(r) in integrations given. Defaulting to  0.1000E-05.
  No occupation type (smearing scheme) given. Defaulting to Gaussian broadening, width =  0.1000E-01 eV.
  No accuracy for occupation numbers given. Defaulting to  0.1000E-07.
  No threshold value for occupation numbers given. Defaulting to  0.0000E+00.
  No accuracy for fermi level given. Defaulting to  0.1000E-19.
  Maximum # of iterations to find E_F not set. Defaulting to  200.
  Preferred method for the eigenvalue solver ('KS_method') not specified in 'control.in'.
  Calling blacs routine to test compilation state
  The best choice would be 'elpa', but your version of FHI-aims is compiled without scalapack support.
  Defaulting to 'lapack_fast' instead (serial solution, time will not improve with more CPUs).
  Will not use alltoall communication since running on < 1024 CPUs.
  Threshold for basis singularities not set.
  Default threshold for basis singularities:  0.1000E-04
  partition_type (choice of integration weights) for integrals was not specified.
  | Using a version of the partition function of Stratmann and coworkers ('stratmann_smoother').
  | At each grid point, the set of atoms used to build the partition table is smoothly restricted to
  | only those atoms whose free-atom density would be non-zero at that grid point.
  Partitioning for Hartree potential was not defined. Using partition_type for integrals.
  | Adjusted default value of keyword multip_moments_threshold to:       0.10000000E-11
  | This value may affect high angular momentum components of the Hartree potential in periodic systems.
  No q(lm)/r^(l+1) cutoff set for long-range Hartree potential.
  | Using default value of  0.100000E-09 .
  | Verify using the multipole_threshold keyword.
  Defaulting to new monopole extrapolation.
  Density update method: automatic selection selected.
------------------------------------------------------------


------------------------------------------------------------
          Reading geometry description geometry.in.
------------------------------------------------------------
 * Warning: Initial charge and total charge of the system are inconsistent.
 * Selected charge in control.in:     1.0000* Sum of initial charges in geometry.in:     0.0000
  Input structure read successfully.
  The structure contains        2 atoms,  and a total of         15.000 electrons.

  Input geometry:
  | No unit cell requested.
  | Atomic structure:
  |       Atom                x [A]            y [A]            z [A]
  |    1: Species O              0.000000         0.000000         0.042359
  |    2: Species O              0.000000         0.000000         1.162641
  |

  | The smallest distance between any two atoms is         1.12028160 AA.
  |
  | The first atom of this pair is atom number                      1 .
  | The second atom of this pair is atom number                     2 .

  Number of empty states per atom not set in control.in - providing a guess from actual geometry.
  | Total number of empty states used during s.c.f. cycle:        6
  If you use a very high smearing, use empty_states (per atom!) in control.in to increase this value.

  Structure-dependent array size parameters: 
  | Maximum number of distinct radial functions  :       11
  | Maximum number of basis functions            :       78
  | Number of Kohn-Sham states (occupied + empty):       14
------------------------------------------------------------

------------------------------------------------------------
          Preparing all fixed parts of the calculation.
------------------------------------------------------------
  Determining machine precision:
    2.225073858507201E-308
  Setting up grids for atomic and cluster calculations.

  Creating wave function, potential, and density for free atoms.

  Species: O

  List of occupied orbitals and eigenvalues:
    n    l              occ      energy [Ha]    energy [eV]
    1    0           2.0000       -18.898576      -514.2564
    2    0           2.0000        -0.878795       -23.9132
    2    1           4.0000        -0.332075        -9.0362

  Creating fixed part of basis set: Ionic, confined, hydrogenic.
 
  O                    hydrogenic:
 
  List of hydrogenic basis orbitals: 
    n    l      effective z      eigenvalue [eV]  inner max. [A]     outer max. [A]     outer radius [A]   
    2    1         1.800000       -11.0118           1.178562           1.178562           5.432602
    3    2         7.600000       -87.3183           0.624125           0.624125           4.634338
    3    0         6.400000       -61.9210           0.061167           1.081902           5.110480
    4    3        11.600000      -114.4239           0.731631           0.731631           4.522403
    3    1         6.200000       -58.1114           0.255680           1.030270           5.110480
    3    2         5.600000       -47.4083           0.847233           0.847233           5.173339
    5    4        17.600000      -168.5800           0.749740           0.749740           4.051222
    1    0         0.750000        -7.6499           0.705284           0.705284           5.366593
 

  Adding cutoff potential to free-atom effective potential.
  Creating atomic-like basis functions for current effective potential.

  Species O                   :

  List of atomic basis orbitals and eigenvalues:
    n    l      energy [Ha]    energy [eV]    outer radius [A]
    1    0       -18.898576      -514.2564       1.415765
    2    0        -0.878795       -23.9132       5.048385
    2    1        -0.332075        -9.0362       5.301386

  Assembling full basis from fixed parts.
  | Species O :   atomic orbital   1 s accepted.
  | Species O :   atomic orbital   2 s accepted.
  | Species O :    hydro orbital   3 s accepted.
  | Species O :    hydro orbital   1 s accepted.
  | Species O :   atomic orbital   2 p accepted.
  | Species O :    hydro orbital   2 p accepted.
  | Species O :    hydro orbital   3 p accepted.
  | Species O :    hydro orbital   3 d accepted.
  | Species O :    hydro orbital   3 d accepted.
  | Species O :    hydro orbital   4 f accepted.
  | Species O :    hydro orbital   5 g accepted.
 
  Basis size parameters after reduction:
  | Total number of radial functions:       11
  | Total number of basis functions :       78
 
  Testing on-site integration grid accuracy.
  |  Species  Function  <phi|h_atom|phi> (log., in eV)  <phi|h_atom|phi> (rad., in eV)
           1        1               -514.2564144315               -514.2564099626
           1        2                -23.9132357102                -23.9132356433
           1        3                 17.5398579759                 17.5398338425
           1        4                 14.5207278950                 14.5207740449
           1        5                 -9.0362392718                 -9.0362394845
           1        6                  7.9056275927                  7.9056237490
           1        7                 33.4201658992                 33.4201612015
           1        8                 45.8231952720                 45.8231953152
           1        9                 52.1937595491                 52.1937593440
           1       10                 85.4062894308                 85.4062894578
           1       11                142.0975701139                142.0975701391

  Preparing densities etc. for the partition functions (integrals / Hartree potential).

  Preparations completed.
  max(cpu_time)          :      0.142 s.
  Wall clock time (cpu1) :      0.151 s.
------------------------------------------------------------

------------------------------------------------------------
          Begin self-consistency loop: Initialization.

          Date     :  20190722, Time     :  144436.769
------------------------------------------------------------

  Initializing index lists of integration centers etc. from given atomic structure:
  | Number of centers in hartree potential         :         2
  | Number of centers in hartree multipole         :         2
  | Number of centers in electron density summation:         2
  | Number of centers in basis integrals           :         2
  | Number of centers in integrals                 :         2
  | Number of centers in hamiltonian               :         2
  Partitioning the integration grid into batches with parallel hashing+maxmin method.
  | Number of batches:      746
  | Maximal batch size:     112
  | Minimal batch size:      49
  | Average batch size:      71.394
  | Standard deviation of batch sizes:      21.569

  Integration load balanced across     4 MPI tasks.
  Work distribution over tasks is as follows:
  Task     0 has      13291 integration points.
  Task     1 has      13313 integration points.
  Task     2 has      13343 integration points.
  Task     3 has      13313 integration points.
  Initializing partition tables, free-atom densities, potentials, etc. across the integration grid (initialize_grid_storage).
  | initialize_grid_storage: Actual outermost partition radius vs. multipole_radius_free
  | (-- VB: in principle, multipole_radius_free should be larger, hence this output)
  | Species        1: Confinement radius =              6.000000000000000 AA, multipole_radius_free =              6.064445521808699 AA.
  | Species        1: outer_partition_radius set to              6.064445521808699 AA .
  | Original list of interatomic distances with           2 x          2 entries is created.
  | Net number of integration points:    53260
  | of which are non-zero points    :    49986
  Obtaining max. number of non-zero basis functions in each batch (get_n_compute_maxes).
  | Maximal number of non-zero basis functions:       78 in task     0
  | Maximal number of non-zero basis functions:       78 in task     1
  | Maximal number of non-zero basis functions:       78 in task     2
  | Maximal number of non-zero basis functions:       78 in task     3
  Selecting the method for density update.
  Loop over occupied states selected for charge density update.
  Integrating Hamiltonian matrix: batch-based integration.
  Time summed over all CPUs for integration: real work        0.168 s, elapsed        0.170 s
  Integrating overlap matrix.
  Time summed over all CPUs for integration: real work        0.060 s, elapsed        0.061 s

  Reading cluster restart information from file restart
  Writing Kohn-Sham eigenvalues.

  State    Occupation    Eigenvalue [Ha]    Eigenvalue [eV]
      1       2.00000         -18.889630         -514.01299
      2       2.00000         -18.889404         -514.00683
      3       2.00000          -1.269640          -34.54866
      4       2.00000          -0.700708          -19.06722
      5       2.00000          -0.503622          -13.70425
      6       2.00000          -0.503622          -13.70425
      7       2.00000          -0.495082          -13.47188
      8       1.00000          -0.185915           -5.05901
      9       1.00000          -0.185915           -5.05901
     10       0.00000           0.098728            2.68652
     11       0.00000           0.105717            2.87671
     12       0.00000           0.132979            3.61854
     13       0.00000           0.000000            0.00000
     14       0.00000           0.000000            0.00000

  Highest occupied state (VBM) at     -5.05901137 eV
  | Occupation number:      1.00000002

  Lowest unoccupied state (CBM) at    -5.05901137 eV
  | Occupation number:      0.99999998

  Overall HOMO-LUMO gap:      0.00000000 eV.
*** get_ev_sum_p0 expected pure occ_numbers
*** sum(occ_numbers) =  1.5999999999999915E+01 instead of  1.5000000000000000E+01
  Calculating total energy contributions from superposition of free atom densities.
*** get_entropy_correction expected pure occ_numbers
*** sum(occ_numbers) =  1.5999999999999915E+01 instead of  1.5000000000000000E+01
*** get_penalty_energy expected pure occ_numbers
*** sum(occ_numbers) =  1.5999999999999915E+01 instead of  1.5000000000000000E+01

  Total energy components:
  | Sum of eigenvalues            :         -82.87524522 Ha       -2255.15016330 eV
  | XC energy correction          :         -16.82262304 Ha        -457.76686371 eV
  | XC potential correction       :          21.62973590 Ha         588.57506018 eV
  | Free-atom electrostatic energy:         -71.49642846 Ha       -1945.51680515 eV
  | Hartree energy correction     :           0.00000000 Ha           0.00000000 eV
  | Entropy correction            :          -0.00020734 Ha          -0.00564190 eV
  | ---------------------------
  | Total energy                  :        -149.56456082 Ha       -4069.85877198 eV
  | Total energy, T -> 0          :        -149.56476815 Ha       -4069.86441387 eV  <-- do not rely on this value for anything but (periodic) metals
  | Electronic free energy        :        -149.56497549 Ha       -4069.87005577 eV

  Derived energy quantities:
  | Kinetic energy                :         150.57532220 Ha        4097.36298859 eV
  | Electrostatic energy          :        -283.31725998 Ha       -7709.45489686 eV
  | Energy correction for multipole
  | error in Hartree potential    :           0.00000000 Ha           0.00000000 eV
  | Sum of eigenvalues per atom                           :       -1127.57508165 eV
  | Total energy (T->0) per atom                          :       -2034.93220694 eV  <-- do not rely on this value for anything but (periodic) metals
  | Electronic free energy per atom                       :       -2034.93502788 eV
  Initialize hartree_potential_storage
  Max. number of atoms included in rho_multipole:            2

  End scf initialization - timings             :  max(cpu_time)    wall_clock(cpu1)
  | Time for scf. initialization               :        0.122 s           0.121 s
  | Boundary condition initialization          :        0.000 s           0.000 s
  | Integration                                :        0.059 s           0.059 s
  | Solution of K.-S. eqns.                    :        0.001 s           0.001 s
  | Grid partitioning                          :        0.022 s           0.021 s
  | Preloading free-atom quantities on grid    :        0.017 s           0.017 s
  | Free-atom superposition energy             :        0.009 s           0.008 s
  | Total energy evaluation                    :        0.001 s           0.002 s
------------------------------------------------------------

------------------------------------------------------------
          Initial SCF-cycle to compute last known
          density from restart information.

  Date     :  20190722, Time     :  144436.891
------------------------------------------------------------
*** scf_solver:charge expected kweighted occ_numbers
*** sum(occ_numbers) =  1.5999999999999915E+01 instead of  1.5000000000000000E+01
  Evaluating new KS density.
*** update_density_and_forces_p2 expected kweighted occ_numbers
*** sum(occ_numbers) =  1.5999999999999915E+01 instead of  1.5000000000000000E+01
  Integration grid: deviation in total charge (<rho> - N_e) =   1.000000E+00

  Evaluating partitioned Hartree potential by multipole expansion.
  | Analytical far-field extrapolation by fixed multipoles:
  | Hartree multipole sum: apparent total charge =  -0.251654E-06
  Summing up the Hartree potential.
  Time summed over all CPUs for potential: real work        0.097 s, elapsed        0.099 s
  | RMS charge density error from multipole expansion :   0.651464E-03

  Integrating Hamiltonian matrix: batch-based integration.
  Time summed over all CPUs for integration: real work        0.165 s, elapsed        0.166 s

  Updating Kohn-Sham eigenvalues, eigenvectors, occupation numbers, and Fermi level.
  Solving generalized eigenproblem
  Updating Kohn-Sham eigenvalues and eigenfunctions.
  Transforming overlap matrix and checking for singularities.
  Overlap matrix is nonsingular:
  | Lowest eigenvalue:  0.183632E-03
  Solving real generalised eigenvalue problem by standard LAPACK (fast)
  Determining occupation numbers for Kohn-Sham eigenstates.
  | Chemical potential (Fermi level) in eV                 : -.50637823E+01
  | Error in electron count due to remaining E_F inaccuracy: 0.47275961E-10
  | Maximum occupation number of highest empty state:  0.00E+00

  Highest occupied state (VBM) at    -13.47187919 eV
  | Occupation number:      2.00000000

  Lowest unoccupied state (CBM) at    -5.05901297 eV
  | Occupation number:      0.50000084

  Overall HOMO-LUMO gap:      8.41286621 eV.

  Total energy components:
  | Sum of eigenvalues            :         -82.68933108 Ha       -2250.09118209 eV
  | XC energy correction          :         -16.91865779 Ha        -460.38010234 eV
  | XC potential correction       :          21.75459606 Ha         591.97267801 eV
  | Free-atom electrostatic energy:         -71.49642846 Ha       -1945.51680515 eV
  | Hartree energy correction     :          -0.66450592 Ha         -18.08212604 eV
  | Entropy correction            :          -0.00016515 Ha          -0.00449404 eV
  | ---------------------------
  | Total energy                  :        -150.01432719 Ha       -4082.09753761 eV
  | Total energy, T -> 0          :        -150.01449234 Ha       -4082.10203165 eV  <-- do not rely on this value for anything but (periodic) metals
  | Electronic free energy        :        -150.01465749 Ha       -4082.10652569 eV

  Derived energy quantities:
  | Kinetic energy                :         150.40589261 Ha        4092.75257496 eV
  | Electrostatic energy          :        -283.50156201 Ha       -7714.47001023 eV
  | Energy correction for multipole
  | error in Hartree potential    :          -0.00059888 Ha          -0.01629649 eV
  | Sum of eigenvalues per atom                           :       -1125.04559104 eV
  | Total energy (T->0) per atom                          :       -2041.05101583 eV  <-- do not rely on this value for anything but (periodic) metals
  | Electronic free energy per atom                       :       -2041.05326285 eV

  Self-consistency convergence accuracy:
  | Change of charge density      :  0.1359E+00
  | Change of sum of eigenvalues  :  0.5059E+01 eV
  | Change of total energy        : -0.1224E+02 eV

  End self-consistency iteration #     0       :  max(cpu_time)    wall_clock(cpu1)
  | Time for this iteration                    :        0.115 s           0.114 s
  | Charge density update                      :        0.032 s           0.031 s
  | Density mixing                             :        0.000 s           0.001 s
  | Hartree multipole update                   :        0.004 s           0.004 s
  | Hartree multipole summation                :        0.026 s           0.026 s
  | Integration                                :        0.042 s           0.042 s
  | Solution of K.-S. eqns.                    :        0.007 s           0.008 s
  | Total energy evaluation                    :        0.001 s           0.002 s
------------------------------------------------------------

------------------------------------------------------------
          Begin self-consistency iteration #    1

  Date     :  20190722, Time     :  144437.009
------------------------------------------------------------
  Evaluating new KS density.
  Integration grid: deviation in total charge (<rho> - N_e) =   4.714096E-11
  Pulay mixing of updated and previous charge densities.

  Evaluating partitioned Hartree potential by multipole expansion.
  | Analytical far-field extrapolation by fixed multipoles:
  | Hartree multipole sum: apparent total charge =   0.200000E+00
  Summing up the Hartree potential.
  Time summed over all CPUs for potential: real work        0.096 s, elapsed        0.097 s
  | RMS charge density error from multipole expansion :   0.572942E-03

  Integrating Hamiltonian matrix: batch-based integration.
  Time summed over all CPUs for integration: real work        0.165 s, elapsed        0.166 s

  Updating Kohn-Sham eigenvalues, eigenvectors, occupation numbers, and Fermi level.
  Solving generalized eigenproblem
  Updating Kohn-Sham eigenvalues and eigenfunctions.
  Solving real generalised eigenvalue problem by standard LAPACK (fast)
  Determining occupation numbers for Kohn-Sham eigenstates.
  | Chemical potential (Fermi level) in eV                 : -.81456541E+01
  | Error in electron count due to remaining E_F inaccuracy: -.86028962E-11
  | Maximum occupation number of highest empty state:  0.00E+00

  Writing Kohn-Sham eigenvalues.

  State    Occupation    Eigenvalue [Ha]    Eigenvalue [eV]
      1       2.00000         -19.044513         -518.22756
      2       2.00000         -19.044287         -518.22143
      3       2.00000          -1.393878          -37.92935
      4       2.00000          -0.812260          -22.10271
      5       2.00000          -0.617649          -16.80707
      6       2.00000          -0.617649          -16.80707
      7       2.00000          -0.606507          -16.50391
      8       0.50001          -0.299172           -8.14088
      9       0.49999          -0.299172           -8.14088
     10       0.00000           0.042756            1.16345
     11       0.00000           0.050695            1.37949
     12       0.00000           0.078036            2.12348
     13       0.00000           0.078036            2.12348
     14       0.00000           0.157523            4.28642

  Highest occupied state (VBM) at    -16.50390695 eV
  | Occupation number:      2.00000000

  Lowest unoccupied state (CBM) at    -8.14088478 eV
  | Occupation number:      0.50000744

  Overall HOMO-LUMO gap:      8.36302218 eV.

  Total energy components:
  | Sum of eigenvalues            :         -84.57265732 Ha       -2301.33909664 eV
  | XC energy correction          :         -16.76626663 Ha        -456.23332798 eV
  | XC potential correction       :          21.55503721 Ha         586.54240543 eV
  | Free-atom electrostatic energy:         -71.49642846 Ha       -1945.51680515 eV
  | Hartree energy correction     :           1.36238078 Ha          37.07226724 eV
  | Entropy correction            :          -0.00016515 Ha          -0.00449404 eV
  | ---------------------------
  | Total energy                  :        -149.91793443 Ha       -4079.47455710 eV
  | Total energy, T -> 0          :        -149.91809958 Ha       -4079.47905114 eV  <-- do not rely on this value for anything but (periodic) metals
  | Electronic free energy        :        -149.91826473 Ha       -4079.48354518 eV

  Derived energy quantities:
  | Kinetic energy                :         149.85322479 Ha        4077.71371840 eV
  | Electrostatic energy          :        -283.00489259 Ha       -7700.95494752 eV
  | Energy correction for multipole
  | error in Hartree potential    :          -0.00048338 Ha          -0.01315337 eV
  | Sum of eigenvalues per atom                           :       -1150.66954832 eV
  | Total energy (T->0) per atom                          :       -2039.73952557 eV  <-- do not rely on this value for anything but (periodic) metals
  | Electronic free energy per atom                       :       -2039.74177259 eV

  Self-consistency convergence accuracy:
  | Change of charge density      :  0.2167E+00
  | Change of sum of eigenvalues  : -0.5125E+02 eV
  | Change of total energy        :  0.2623E+01 eV

  End self-consistency iteration #     1       :  max(cpu_time)    wall_clock(cpu1)
  | Time for this iteration                    :        0.103 s           0.104 s
  | Charge density update                      :        0.029 s           0.030 s
  | Density mixing                             :        0.002 s           0.001 s
  | Hartree multipole update                   :        0.004 s           0.003 s
  | Hartree multipole summation                :        0.025 s           0.026 s
  | Integration                                :        0.042 s           0.042 s
  | Solution of K.-S. eqns.                    :        0.001 s           0.001 s
  | Total energy evaluation                    :        0.000 s           0.001 s
------------------------------------------------------------

------------------------------------------------------------
          Begin self-consistency iteration #    2

  Date     :  20190722, Time     :  144437.114
------------------------------------------------------------
  Evaluating new KS density.
  Integration grid: deviation in total charge (<rho> - N_e) =  -8.764545E-12
  Pulay mixing of updated and previous charge densities.

  Evaluating partitioned Hartree potential by multipole expansion.
  | Analytical far-field extrapolation by fixed multipoles:
  | Hartree multipole sum: apparent total charge =   0.551815E+00
  Summing up the Hartree potential.
  Time summed over all CPUs for potential: real work        0.096 s, elapsed        0.097 s
  | RMS charge density error from multipole expansion :   0.501907E-03

  Integrating Hamiltonian matrix: batch-based integration.
  Time summed over all CPUs for integration: real work        0.165 s, elapsed        0.168 s

  Updating Kohn-Sham eigenvalues, eigenvectors, occupation numbers, and Fermi level.
  Solving generalized eigenproblem
  Updating Kohn-Sham eigenvalues and eigenfunctions.
  Solving real generalised eigenvalue problem by standard LAPACK (fast)
  Determining occupation numbers for Kohn-Sham eigenstates.
  | Chemical potential (Fermi level) in eV                 : -.13068257E+02
  | Error in electron count due to remaining E_F inaccuracy: 0.97291064E-11
  | Maximum occupation number of highest empty state:  0.00E+00

  Highest occupied state (VBM) at    -21.32512788 eV
  | Occupation number:      2.00000000

  Lowest unoccupied state (CBM) at   -13.06348984 eV
  | Occupation number:      0.50015455

  Overall HOMO-LUMO gap:      8.26163804 eV.

  Total energy components:
  | Sum of eigenvalues            :         -87.48390042 Ha       -2380.55805179 eV
  | XC energy correction          :         -16.55194529 Ha        -450.40134754 eV
  | XC potential correction       :          21.27435132 Ha         578.90455380 eV
  | Free-atom electrostatic energy:         -71.49642846 Ha       -1945.51680515 eV
  | Hartree energy correction     :           4.43308979 Ha         120.63051078 eV
  | Entropy correction            :          -0.00016515 Ha          -0.00449404 eV
  | ---------------------------
  | Total energy                  :        -149.82483305 Ha       -4076.94113989 eV
  | Total energy, T -> 0          :        -149.82499821 Ha       -4076.94563393 eV  <-- do not rely on this value for anything but (periodic) metals
  | Electronic free energy        :        -149.82516336 Ha       -4076.95012797 eV

  Derived energy quantities:
  | Kinetic energy                :         149.15862946 Ha        4058.81281774 eV
  | Electrostatic energy          :        -282.43151722 Ha       -7685.35261009 eV
  | Energy correction for multipole
  | error in Hartree potential    :          -0.00037775 Ha          -0.01027920 eV
  | Sum of eigenvalues per atom                           :       -1190.27902590 eV
  | Total energy (T->0) per atom                          :       -2038.47281696 eV  <-- do not rely on this value for anything but (periodic) metals
  | Electronic free energy per atom                       :       -2038.47506398 eV

  Self-consistency convergence accuracy:
  | Change of charge density      :  0.1326E+00
  | Change of sum of eigenvalues  : -0.7922E+02 eV
  | Change of total energy        :  0.2533E+01 eV

  End self-consistency iteration #     2       :  max(cpu_time)    wall_clock(cpu1)
  | Time for this iteration                    :        0.104 s           0.104 s
  | Charge density update                      :        0.029 s           0.029 s
  | Density mixing                             :        0.002 s           0.002 s
  | Hartree multipole update                   :        0.004 s           0.004 s
  | Hartree multipole summation                :        0.025 s           0.025 s
  | Integration                                :        0.043 s           0.042 s
  | Solution of K.-S. eqns.                    :        0.001 s           0.001 s
  | Total energy evaluation                    :        0.001 s           0.000 s
------------------------------------------------------------

------------------------------------------------------------
          Begin self-consistency iteration #    3

  Date     :  20190722, Time     :  144437.220
------------------------------------------------------------
  Evaluating new KS density.
  Integration grid: deviation in total charge (<rho> - N_e) =   9.801937E-12
  Pulay mixing of updated and previous charge densities.

  Evaluating partitioned Hartree potential by multipole expansion.
  | Analytical far-field extrapolation by fixed multipoles:
  | Hartree multipole sum: apparent total charge =   0.102701E+01
  Summing up the Hartree potential.
  Time summed over all CPUs for potential: real work        0.095 s, elapsed        0.096 s
  | RMS charge density error from multipole expansion :   0.487862E-03

  Integrating Hamiltonian matrix: batch-based integration.
  Time summed over all CPUs for integration: real work        0.166 s, elapsed        0.175 s

  Updating Kohn-Sham eigenvalues, eigenvectors, occupation numbers, and Fermi level.
  Solving generalized eigenproblem
  Updating Kohn-Sham eigenvalues and eigenfunctions.
  Solving real generalised eigenvalue problem by standard LAPACK (fast)
  Determining occupation numbers for Kohn-Sham eigenstates.
  | Chemical potential (Fermi level) in eV                 : -.18056675E+02
  | Error in electron count due to remaining E_F inaccuracy: -.11013412E-12
  | Maximum occupation number of highest empty state:  0.00E+00

  Highest occupied state (VBM) at    -26.24108117 eV
  | Occupation number:      2.00000000

  Lowest unoccupied state (CBM) at   -18.05199509 eV
  | Occupation number:      0.50811088

  Overall HOMO-LUMO gap:      8.18908608 eV.

  Total energy components:
  | Sum of eigenvalues            :         -90.19740024 Ha       -2454.39613888 eV
  | XC energy correction          :         -16.41979040 Ha        -446.80523001 eV
  | XC potential correction       :          21.10118312 Ha         574.19240738 eV
  | Free-atom electrostatic energy:         -71.49642846 Ha       -1945.51680515 eV
  | Hartree energy correction     :           7.21866038 Ha         196.42974323 eV
  | Entropy correction            :          -0.00016514 Ha          -0.00449367 eV
  | ---------------------------
  | Total energy                  :        -149.79377559 Ha       -4076.09602342 eV
  | Total energy, T -> 0          :        -149.79394073 Ha       -4076.10051709 eV  <-- do not rely on this value for anything but (periodic) metals
  | Electronic free energy        :        -149.79410587 Ha       -4076.10501077 eV

  Derived energy quantities:
  | Kinetic energy                :         149.28530547 Ha        4062.25984746 eV
  | Electrostatic energy          :        -282.65929067 Ha       -7691.55064087 eV
  | Energy correction for multipole
  | error in Hartree potential    :          -0.00053518 Ha          -0.01456286 eV
  | Sum of eigenvalues per atom                           :       -1227.19806944 eV
  | Total energy (T->0) per atom                          :       -2038.05025855 eV  <-- do not rely on this value for anything but (periodic) metals
  | Electronic free energy per atom                       :       -2038.05250538 eV

  Self-consistency convergence accuracy:
  | Change of charge density      :  0.5894E-01
  | Change of sum of eigenvalues  : -0.7384E+02 eV
  | Change of total energy        :  0.8451E+00 eV

  End self-consistency iteration #     3       :  max(cpu_time)    wall_clock(cpu1)
  | Time for this iteration                    :        0.106 s           0.105 s
  | Charge density update                      :        0.030 s           0.029 s
  | Density mixing                             :        0.001 s           0.002 s
  | Hartree multipole update                   :        0.004 s           0.003 s
  | Hartree multipole summation                :        0.025 s           0.025 s
  | Integration                                :        0.045 s           0.044 s
  | Solution of K.-S. eqns.                    :        0.001 s           0.001 s
  | Total energy evaluation                    :        0.000 s           0.001 s
------------------------------------------------------------

------------------------------------------------------------
          Begin self-consistency iteration #    4

  Date     :  20190722, Time     :  144437.326
------------------------------------------------------------
  Evaluating new KS density.
  Integration grid: deviation in total charge (<rho> - N_e) =   2.362555E-13
  Pulay mixing of updated and previous charge densities.

  Evaluating partitioned Hartree potential by multipole expansion.
  | Analytical far-field extrapolation by fixed multipoles:
  | Hartree multipole sum: apparent total charge =   0.996349E+00
  Summing up the Hartree potential.
  Time summed over all CPUs for potential: real work        0.095 s, elapsed        0.096 s
  | RMS charge density error from multipole expansion :   0.484983E-03

  Integrating Hamiltonian matrix: batch-based integration.
  Time summed over all CPUs for integration: real work        0.164 s, elapsed        0.165 s

  Updating Kohn-Sham eigenvalues, eigenvectors, occupation numbers, and Fermi level.
  Solving generalized eigenproblem
  Updating Kohn-Sham eigenvalues and eigenfunctions.
  Solving real generalised eigenvalue problem by standard LAPACK (fast)
  Determining occupation numbers for Kohn-Sham eigenstates.
  | Chemical potential (Fermi level) in eV                 : -.17512747E+02
  | Error in electron count due to remaining E_F inaccuracy: -.17585933E-12
  | Maximum occupation number of highest empty state:  0.00E+00

  Highest occupied state (VBM) at    -25.71191107 eV
  | Occupation number:      2.00000000

  Lowest unoccupied state (CBM) at   -17.50860485 eV
  | Occupation number:      0.55798976

  Overall HOMO-LUMO gap:      8.20330622 eV.

  Total energy components:
  | Sum of eigenvalues            :         -89.86552835 Ha       -2445.36544530 eV
  | XC energy correction          :         -16.44776102 Ha        -447.56634928 eV
  | XC potential correction       :          21.13781271 Ha         575.18914926 eV
  | Free-atom electrostatic energy:         -71.49642846 Ha       -1945.51680515 eV
  | Hartree energy correction     :           6.87879431 Ha         187.18151691 eV
  | Entropy correction            :          -0.00016446 Ha          -0.00447531 eV
  | ---------------------------
  | Total energy                  :        -149.79311080 Ha       -4076.07793357 eV
  | Total energy, T -> 0          :        -149.79327527 Ha       -4076.08240887 eV  <-- do not rely on this value for anything but (periodic) metals
  | Electronic free energy        :        -149.79343973 Ha       -4076.08688418 eV

  Derived energy quantities:
  | Kinetic energy                :         149.43378901 Ha        4066.30029002 eV
  | Electrostatic energy          :        -282.77913879 Ha       -7694.81187430 eV
  | Energy correction for multipole
  | error in Hartree potential    :          -0.00055898 Ha          -0.01521075 eV
  | Sum of eigenvalues per atom                           :       -1222.68272265 eV
  | Total energy (T->0) per atom                          :       -2038.04120444 eV  <-- do not rely on this value for anything but (periodic) metals
  | Electronic free energy per atom                       :       -2038.04344209 eV

  Self-consistency convergence accuracy:
  | Change of charge density      :  0.2430E-01
  | Change of sum of eigenvalues  :  0.9031E+01 eV
  | Change of total energy        :  0.1809E-01 eV

  End self-consistency iteration #     4       :  max(cpu_time)    wall_clock(cpu1)
  | Time for this iteration                    :        0.103 s           0.103 s
  | Charge density update                      :        0.030 s           0.030 s
  | Density mixing                             :        0.002 s           0.001 s
  | Hartree multipole update                   :        0.004 s           0.004 s
  | Hartree multipole summation                :        0.025 s           0.025 s
  | Integration                                :        0.042 s           0.041 s
  | Solution of K.-S. eqns.                    :        0.001 s           0.001 s
  | Total energy evaluation                    :        0.001 s           0.001 s
------------------------------------------------------------

------------------------------------------------------------
          Begin self-consistency iteration #    5

  Date     :  20190722, Time     :  144437.431
------------------------------------------------------------
  Evaluating new KS density.
  Integration grid: deviation in total charge (<rho> - N_e) =   1.065814E-14
  Pulay mixing of updated and previous charge densities.

  Evaluating partitioned Hartree potential by multipole expansion.
  | Analytical far-field extrapolation by fixed multipoles:
  | Hartree multipole sum: apparent total charge =   0.993576E+00
  Summing up the Hartree potential.
  Time summed over all CPUs for potential: real work        0.095 s, elapsed        0.096 s
  | RMS charge density error from multipole expansion :   0.484996E-03

  Integrating Hamiltonian matrix: batch-based integration.
  Time summed over all CPUs for integration: real work        0.164 s, elapsed        0.166 s

  Updating Kohn-Sham eigenvalues, eigenvectors, occupation numbers, and Fermi level.
  Solving generalized eigenproblem
  Updating Kohn-Sham eigenvalues and eigenfunctions.
  Solving real generalised eigenvalue problem by standard LAPACK (fast)
  Determining occupation numbers for Kohn-Sham eigenstates.
  | Chemical potential (Fermi level) in eV                 : -.17461388E+02
  | Error in electron count due to remaining E_F inaccuracy: 0.13505641E-10
  | Maximum occupation number of highest empty state:  0.00E+00

  Highest occupied state (VBM) at    -25.66190760 eV
  | Occupation number:      2.00000000

  Lowest unoccupied state (CBM) at   -17.45667419 eV
  | Occupation number:      0.50503709

  Overall HOMO-LUMO gap:      8.20523340 eV.

  Total energy components:
  | Sum of eigenvalues            :         -89.83418045 Ha       -2444.51242544 eV
  | XC energy correction          :         -16.45045442 Ha        -447.63964042 eV
  | XC potential correction       :          21.14134211 Ha         575.28518887 eV
  | Free-atom electrostatic energy:         -71.49642846 Ha       -1945.51680515 eV
  | Hartree energy correction     :           6.84662946 Ha         186.30626680 eV
  | Entropy correction            :          -0.00016515 Ha          -0.00449390 eV
  | ---------------------------
  | Total energy                  :        -149.79309176 Ha       -4076.07741534 eV
  | Total energy, T -> 0          :        -149.79325691 Ha       -4076.08190923 eV  <-- do not rely on this value for anything but (periodic) metals
  | Electronic free energy        :        -149.79342206 Ha       -4076.08640313 eV

  Derived energy quantities:
  | Kinetic energy                :         149.44769971 Ha        4066.67881941 eV
  | Electrostatic energy          :        -282.79033705 Ha       -7695.11659432 eV
  | Energy correction for multipole
  | error in Hartree potential    :          -0.00056097 Ha          -0.01526481 eV
  | Sum of eigenvalues per atom                           :       -1222.25621272 eV
  | Total energy (T->0) per atom                          :       -2038.04095462 eV  <-- do not rely on this value for anything but (periodic) metals
  | Electronic free energy per atom                       :       -2038.04320157 eV

  Self-consistency convergence accuracy:
  | Change of charge density      :  0.2155E-01
  | Change of sum of eigenvalues  :  0.8530E+00 eV
  | Change of total energy        :  0.5182E-03 eV

  End self-consistency iteration #     5       :  max(cpu_time)    wall_clock(cpu1)
  | Time for this iteration                    :        0.104 s           0.104 s
  | Charge density update                      :        0.030 s           0.030 s
  | Density mixing                             :        0.003 s           0.002 s
  | Hartree multipole update                   :        0.004 s           0.003 s
  | Hartree multipole summation                :        0.025 s           0.025 s
  | Integration                                :        0.042 s           0.042 s
  | Solution of K.-S. eqns.                    :        0.001 s           0.001 s
  | Total energy evaluation                    :        0.001 s           0.001 s
------------------------------------------------------------

------------------------------------------------------------
          Begin self-consistency iteration #    6

  Date     :  20190722, Time     :  144437.536
------------------------------------------------------------
  Evaluating new KS density.
  Integration grid: deviation in total charge (<rho> - N_e) =   1.339373E-11
  Pulay mixing of updated and previous charge densities.

  Evaluating partitioned Hartree potential by multipole expansion.
  | Analytical far-field extrapolation by fixed multipoles:
  | Hartree multipole sum: apparent total charge =   0.999250E+00
  Summing up the Hartree potential.
  Time summed over all CPUs for potential: real work        0.096 s, elapsed        0.097 s
  | RMS charge density error from multipole expansion :   0.496323E-03

  Integrating Hamiltonian matrix: batch-based integration.
  Time summed over all CPUs for integration: real work        0.164 s, elapsed        0.166 s

  Updating Kohn-Sham eigenvalues, eigenvectors, occupation numbers, and Fermi level.
  Solving generalized eigenproblem
  Updating Kohn-Sham eigenvalues and eigenfunctions.
  Solving real generalised eigenvalue problem by standard LAPACK (fast)
  Determining occupation numbers for Kohn-Sham eigenstates.
  | Chemical potential (Fermi level) in eV                 : -.17425039E+02
  | Error in electron count due to remaining E_F inaccuracy: -.25751135E-09
  | Maximum occupation number of highest empty state:  0.00E+00

  Highest occupied state (VBM) at    -25.62503849 eV
  | Occupation number:      2.00000000

  Lowest unoccupied state (CBM) at   -17.42028484 eV
  | Occupation number:      0.50133293

  Overall HOMO-LUMO gap:      8.20475365 eV.

  Total energy components:
  | Sum of eigenvalues            :         -89.80904383 Ha       -2443.82842325 eV
  | XC energy correction          :         -16.45584098 Ha        -447.78621627 eV
  | XC potential correction       :          21.14850414 Ha         575.48007772 eV
  | Free-atom electrostatic energy:         -71.49642846 Ha       -1945.51680515 eV
  | Hartree energy correction     :           6.81974036 Ha         185.57457725 eV
  | Entropy correction            :          -0.00016515 Ha          -0.00449403 eV
  | ---------------------------
  | Total energy                  :        -149.79306877 Ha       -4076.07678970 eV
  | Total energy, T -> 0          :        -149.79323392 Ha       -4076.08128373 eV  <-- do not rely on this value for anything but (periodic) metals
  | Electronic free energy        :        -149.79339907 Ha       -4076.08577776 eV

  Derived energy quantities:
  | Kinetic energy                :         149.46737718 Ha        4067.21427057 eV
  | Electrostatic energy          :        -282.80460496 Ha       -7695.50484400 eV
  | Energy correction for multipole
  | error in Hartree potential    :          -0.00055263 Ha          -0.01503793 eV
  | Sum of eigenvalues per atom                           :       -1221.91421163 eV
  | Total energy (T->0) per atom                          :       -2038.04064186 eV  <-- do not rely on this value for anything but (periodic) metals
  | Electronic free energy per atom                       :       -2038.04288888 eV

  Self-consistency convergence accuracy:
  | Change of charge density      :  0.6844E-02
  | Change of sum of eigenvalues  :  0.6840E+00 eV
  | Change of total energy        :  0.6256E-03 eV

  End self-consistency iteration #     6       :  max(cpu_time)    wall_clock(cpu1)
  | Time for this iteration                    :        0.104 s           0.104 s
  | Charge density update                      :        0.029 s           0.029 s
  | Density mixing                             :        0.003 s           0.003 s
  | Hartree multipole update                   :        0.003 s           0.003 s
  | Hartree multipole summation                :        0.025 s           0.025 s
  | Integration                                :        0.042 s           0.042 s
  | Solution of K.-S. eqns.                    :        0.001 s           0.001 s
  | Total energy evaluation                    :        0.001 s           0.001 s
------------------------------------------------------------

------------------------------------------------------------
          Begin self-consistency iteration #    7

  Date     :  20190722, Time     :  144437.641
------------------------------------------------------------
  Evaluating new KS density.
  Integration grid: deviation in total charge (<rho> - N_e) =  -2.574225E-10
  Pulay mixing of updated and previous charge densities.

  Evaluating partitioned Hartree potential by multipole expansion.
  | Analytical far-field extrapolation by fixed multipoles:
  | Hartree multipole sum: apparent total charge =   0.999603E+00
  Summing up the Hartree potential.
  Time summed over all CPUs for potential: real work        0.096 s, elapsed        0.096 s
  | RMS charge density error from multipole expansion :   0.496955E-03

  Integrating Hamiltonian matrix: batch-based integration.
  Time summed over all CPUs for integration: real work        0.165 s, elapsed        0.166 s

  Updating Kohn-Sham eigenvalues, eigenvectors, occupation numbers, and Fermi level.
  Solving generalized eigenproblem
  Updating Kohn-Sham eigenvalues and eigenfunctions.
  Solving real generalised eigenvalue problem by standard LAPACK (fast)
  Determining occupation numbers for Kohn-Sham eigenstates.
  | Chemical potential (Fermi level) in eV                 : -.17426304E+02
  | Error in electron count due to remaining E_F inaccuracy: -.10415420E-08
  | Maximum occupation number of highest empty state:  0.00E+00

  Highest occupied state (VBM) at    -25.62770372 eV
  | Occupation number:      2.00000000

  Lowest unoccupied state (CBM) at   -17.42156132 eV
  | Occupation number:      0.50239217

  Overall HOMO-LUMO gap:      8.20614240 eV.

  Total energy components:
  | Sum of eigenvalues            :         -89.81003000 Ha       -2443.85525835 eV
  | XC energy correction          :         -16.45573547 Ha        -447.78334517 eV
  | XC potential correction       :          21.14837683 Ha         575.47661346 eV
  | Free-atom electrostatic energy:         -71.49642846 Ha       -1945.51680515 eV
  | Hartree energy correction     :           6.82074845 Ha         185.60200868 eV
  | Entropy correction            :          -0.00016515 Ha          -0.00449401 eV
  | ---------------------------
  | Total energy                  :        -149.79306865 Ha       -4076.07678653 eV
  | Total energy, T -> 0          :        -149.79323380 Ha       -4076.08128054 eV  <-- do not rely on this value for anything but (periodic) metals
  | Electronic free energy        :        -149.79339896 Ha       -4076.08577455 eV

  Derived energy quantities:
  | Kinetic energy                :         149.46472797 Ha        4067.14218195 eV
  | Electrostatic energy          :        -282.80206115 Ha       -7695.43562331 eV
  | Energy correction for multipole
  | error in Hartree potential    :          -0.00055113 Ha          -0.01499707 eV
  | Sum of eigenvalues per atom                           :       -1221.92762917 eV
  | Total energy (T->0) per atom                          :       -2038.04064027 eV  <-- do not rely on this value for anything but (periodic) metals
  | Electronic free energy per atom                       :       -2038.04288727 eV

  Self-consistency convergence accuracy:
  | Change of charge density      :  0.7771E-03
  | Change of sum of eigenvalues  : -0.2684E-01 eV
  | Change of total energy        :  0.3167E-05 eV

  End self-consistency iteration #     7       :  max(cpu_time)    wall_clock(cpu1)
  | Time for this iteration                    :        0.104 s           0.104 s
  | Charge density update                      :        0.030 s           0.029 s
  | Density mixing                             :        0.002 s           0.002 s
  | Hartree multipole update                   :        0.004 s           0.004 s
  | Hartree multipole summation                :        0.025 s           0.025 s
  | Integration                                :        0.042 s           0.041 s
  | Solution of K.-S. eqns.                    :        0.001 s           0.002 s
  | Total energy evaluation                    :        0.000 s           0.000 s
------------------------------------------------------------

------------------------------------------------------------
          Begin self-consistency iteration #    8

  Date     :  20190722, Time     :  144437.747
------------------------------------------------------------
  Evaluating new KS density.
  Integration grid: deviation in total charge (<rho> - N_e) =  -1.041453E-09
  Pulay mixing of updated and previous charge densities.

  Evaluating partitioned Hartree potential by multipole expansion.
  | Analytical far-field extrapolation by fixed multipoles:
  | Hartree multipole sum: apparent total charge =   0.100006E+01
  Summing up the Hartree potential.
  Time summed over all CPUs for potential: real work        0.095 s, elapsed        0.096 s
  | RMS charge density error from multipole expansion :   0.497847E-03

  Integrating Hamiltonian matrix: batch-based integration.
  Time summed over all CPUs for integration: real work        0.165 s, elapsed        0.166 s

  Updating Kohn-Sham eigenvalues, eigenvectors, occupation numbers, and Fermi level.
  Solving generalized eigenproblem
  Updating Kohn-Sham eigenvalues and eigenfunctions.
  Solving real generalised eigenvalue problem by standard LAPACK (fast)
  Determining occupation numbers for Kohn-Sham eigenstates.
  | Chemical potential (Fermi level) in eV                 : -.17420668E+02
  | Error in electron count due to remaining E_F inaccuracy: -.10372148E-10
  | Maximum occupation number of highest empty state:  0.00E+00

  Highest occupied state (VBM) at    -25.62281707 eV
  | Occupation number:      2.00000000

  Lowest unoccupied state (CBM) at   -17.41589919 eV
  | Occupation number:      0.50005755

  Overall HOMO-LUMO gap:      8.20691789 eV.

  Total energy components:
  | Sum of eigenvalues            :         -89.80612028 Ha       -2443.74886950 eV
  | XC energy correction          :         -16.45635589 Ha        -447.80022767 eV
  | XC potential correction       :          21.14920016 Ha         575.49901741 eV
  | Free-atom electrostatic energy:         -71.49642846 Ha       -1945.51680515 eV
  | Hartree energy correction     :           6.81663611 Ha         185.49010616 eV
  | Entropy correction            :          -0.00016515 Ha          -0.00449404 eV
  | ---------------------------
  | Total energy                  :        -149.79306837 Ha       -4076.07677874 eV
  | Total energy, T -> 0          :        -149.79323352 Ha       -4076.08127278 eV  <-- do not rely on this value for anything but (periodic) metals
  | Electronic free energy        :        -149.79339867 Ha       -4076.08576682 eV

  Derived energy quantities:
  | Kinetic energy                :         149.46751108 Ha        4067.21791424 eV
  | Electrostatic energy          :        -282.80422355 Ha       -7695.49446531 eV
  | Energy correction for multipole
  | error in Hartree potential    :          -0.00055066 Ha          -0.01498432 eV
  | Sum of eigenvalues per atom                           :       -1221.87443475 eV
  | Total energy (T->0) per atom                          :       -2038.04063639 eV  <-- do not rely on this value for anything but (periodic) metals
  | Electronic free energy per atom                       :       -2038.04288341 eV

  Self-consistency convergence accuracy:
  | Change of charge density      :  0.1018E-02
  | Change of sum of eigenvalues  :  0.1064E+00 eV
  | Change of total energy        :  0.7791E-05 eV

  End self-consistency iteration #     8       :  max(cpu_time)    wall_clock(cpu1)
  | Time for this iteration                    :        0.104 s           0.104 s
  | Charge density update                      :        0.029 s           0.029 s
  | Density mixing                             :        0.003 s           0.003 s
  | Hartree multipole update                   :        0.004 s           0.003 s
  | Hartree multipole summation                :        0.025 s           0.025 s
  | Integration                                :        0.042 s           0.042 s
  | Solution of K.-S. eqns.                    :        0.001 s           0.001 s
  | Total energy evaluation                    :        0.001 s           0.001 s
------------------------------------------------------------

------------------------------------------------------------
          Begin self-consistency iteration #    9

  Date     :  20190722, Time     :  144437.853
------------------------------------------------------------
  Evaluating new KS density.
  Integration grid: deviation in total charge (<rho> - N_e) =  -1.050360E-11
  Pulay mixing of updated and previous charge densities.

  Evaluating partitioned Hartree potential by multipole expansion.
  | Analytical far-field extrapolation by fixed multipoles:
  | Hartree multipole sum: apparent total charge =   0.100006E+01
  Summing up the Hartree potential.
  Time summed over all CPUs for potential: real work        0.096 s, elapsed        0.096 s
  | RMS charge density error from multipole expansion :   0.497852E-03

  Integrating Hamiltonian matrix: batch-based integration.
  Time summed over all CPUs for integration: real work        0.164 s, elapsed        0.166 s

  Updating Kohn-Sham eigenvalues, eigenvectors, occupation numbers, and Fermi level.
  Solving generalized eigenproblem
  Updating Kohn-Sham eigenvalues and eigenfunctions.
  Solving real generalised eigenvalue problem by standard LAPACK (fast)
  Determining occupation numbers for Kohn-Sham eigenstates.
  | Chemical potential (Fermi level) in eV                 : -.17420554E+02
  | Error in electron count due to remaining E_F inaccuracy: -.92423846E-11
  | Maximum occupation number of highest empty state:  0.00E+00

  Highest occupied state (VBM) at    -25.62270428 eV
  | Occupation number:      2.00000000

  Lowest unoccupied state (CBM) at   -17.41578590 eV
  | Occupation number:      0.50008639

  Overall HOMO-LUMO gap:      8.20691837 eV.

  Total energy components:
  | Sum of eigenvalues            :         -89.80605169 Ha       -2443.74700297 eV
  | XC energy correction          :         -16.45636274 Ha        -447.80041386 eV
  | XC potential correction       :          21.14920920 Ha         575.49926336 eV
  | Free-atom electrostatic energy:         -71.49642846 Ha       -1945.51680515 eV
  | Hartree energy correction     :           6.81656532 Ha         185.48817989 eV
  | Entropy correction            :          -0.00016515 Ha          -0.00449404 eV
  | ---------------------------
  | Total energy                  :        -149.79306837 Ha       -4076.07677872 eV
  | Total energy, T -> 0          :        -149.79323352 Ha       -4076.08127276 eV  <-- do not rely on this value for anything but (periodic) metals
  | Electronic free energy        :        -149.79339867 Ha       -4076.08576680 eV

  Derived energy quantities:
  | Kinetic energy                :         149.46753663 Ha        4067.21860940 eV
  | Electrostatic energy          :        -282.80424226 Ha       -7695.49497426 eV
  | Energy correction for multipole
  | error in Hartree potential    :          -0.00055066 Ha          -0.01498417 eV
  | Sum of eigenvalues per atom                           :       -1221.87350148 eV
  | Total energy (T->0) per atom                          :       -2038.04063638 eV  <-- do not rely on this value for anything but (periodic) metals
  | Electronic free energy per atom                       :       -2038.04288340 eV

  Self-consistency convergence accuracy:
  | Change of charge density      :  0.7124E-04
  | Change of sum of eigenvalues  :  0.1867E-02 eV
  | Change of total energy        :  0.1952E-07 eV

  End self-consistency iteration #     9       :  max(cpu_time)    wall_clock(cpu1)
  | Time for this iteration                    :        0.104 s           0.104 s
  | Charge density update                      :        0.029 s           0.029 s
  | Density mixing                             :        0.003 s           0.003 s
  | Hartree multipole update                   :        0.004 s           0.003 s
  | Hartree multipole summation                :        0.025 s           0.025 s
  | Integration                                :        0.042 s           0.042 s
  | Solution of K.-S. eqns.                    :        0.001 s           0.001 s
  | Total energy evaluation                    :        0.000 s           0.001 s
------------------------------------------------------------

------------------------------------------------------------
          Begin self-consistency iteration #   10

  Date     :  20190722, Time     :  144437.958
------------------------------------------------------------
  Evaluating new KS density.
  Integration grid: deviation in total charge (<rho> - N_e) =  -9.539036E-12
  Pulay mixing of updated and previous charge densities.

  Evaluating partitioned Hartree potential by multipole expansion.
  | Analytical far-field extrapolation by fixed multipoles:
  | Hartree multipole sum: apparent total charge =   0.999994E+00
  Summing up the Hartree potential.
  Time summed over all CPUs for potential: real work        0.100 s, elapsed        0.101 s
  | RMS charge density error from multipole expansion :   0.497925E-03

  Integrating Hamiltonian matrix: batch-based integration.
  Time summed over all CPUs for integration: real work        0.166 s, elapsed        0.168 s

  Updating Kohn-Sham eigenvalues, eigenvectors, occupation numbers, and Fermi level.
  Solving generalized eigenproblem
  Updating Kohn-Sham eigenvalues and eigenfunctions.
  Solving real generalised eigenvalue problem by standard LAPACK (fast)
  Determining occupation numbers for Kohn-Sham eigenstates.
  | Chemical potential (Fermi level) in eV                 : -.17418673E+02
  | Error in electron count due to remaining E_F inaccuracy: -.10196288E-11
  | Maximum occupation number of highest empty state:  0.00E+00

  Highest occupied state (VBM) at    -25.62083382 eV
  | Occupation number:      2.00000000

  Lowest unoccupied state (CBM) at   -17.41390552 eV
  | Occupation number:      0.50019841

  Overall HOMO-LUMO gap:      8.20692830 eV.

  Total energy components:
  | Sum of eigenvalues            :         -89.80491826 Ha       -2443.71616078 eV
  | XC energy correction          :         -16.45647471 Ha        -447.80346091 eV
  | XC potential correction       :          21.14935711 Ha         575.50328830 eV
  | Free-atom electrostatic energy:         -71.49642846 Ha       -1945.51680515 eV
  | Hartree energy correction     :           6.81539596 Ha         185.45635996 eV
  | Entropy correction            :          -0.00016515 Ha          -0.00449404 eV
  | ---------------------------
  | Total energy                  :        -149.79306836 Ha       -4076.07677857 eV
  | Total energy, T -> 0          :        -149.79323351 Ha       -4076.08127261 eV  <-- do not rely on this value for anything but (periodic) metals
  | Electronic free energy        :        -149.79339867 Ha       -4076.08576665 eV

  Derived energy quantities:
  | Kinetic energy                :         149.46795013 Ha        4067.22986153 eV
  | Electrostatic energy          :        -282.80454378 Ha       -7695.50317919 eV
  | Energy correction for multipole
  | error in Hartree potential    :          -0.00055057 Ha          -0.01498166 eV
  | Sum of eigenvalues per atom                           :       -1221.85808039 eV
  | Total energy (T->0) per atom                          :       -2038.04063630 eV  <-- do not rely on this value for anything but (periodic) metals
  | Electronic free energy per atom                       :       -2038.04288332 eV

  Self-consistency convergence accuracy:
  | Change of charge density      :  0.7124E-04
  | Change of sum of eigenvalues  :  0.3084E-01 eV
  | Change of total energy        :  0.1513E-06 eV

  End self-consistency iteration #    10       :  max(cpu_time)    wall_clock(cpu1)
  | Time for this iteration                    :        0.109 s           0.109 s
  | Charge density update                      :        0.030 s           0.030 s
  | Density mixing                             :        0.002 s           0.002 s
  | Hartree multipole update                   :        0.004 s           0.004 s
  | Hartree multipole summation                :        0.027 s           0.027 s
  | Integration                                :        0.043 s           0.043 s
  | Solution of K.-S. eqns.                    :        0.002 s           0.001 s
  | Total energy evaluation                    :        0.000 s           0.001 s
------------------------------------------------------------

------------------------------------------------------------
          Begin self-consistency iteration #   11

  Date     :  20190722, Time     :  144438.069
------------------------------------------------------------
  Evaluating new KS density.
  Integration grid: deviation in total charge (<rho> - N_e) =  -9.947598E-13
  Pulay mixing of updated and previous charge densities.

  Evaluating partitioned Hartree potential by multipole expansion.
  | Analytical far-field extrapolation by fixed multipoles:
  | Hartree multipole sum: apparent total charge =   0.999993E+00
  Summing up the Hartree potential.
  Time summed over all CPUs for potential: real work        0.095 s, elapsed        0.096 s
  | RMS charge density error from multipole expansion :   0.497932E-03

  Integrating Hamiltonian matrix: batch-based integration.
  Time summed over all CPUs for integration: real work        0.164 s, elapsed        0.165 s

  Updating Kohn-Sham eigenvalues, eigenvectors, occupation numbers, and Fermi level.
  Solving generalized eigenproblem
  Updating Kohn-Sham eigenvalues and eigenfunctions.
  Solving real generalised eigenvalue problem by standard LAPACK (fast)
  Determining occupation numbers for Kohn-Sham eigenstates.
  | Chemical potential (Fermi level) in eV                 : -.17418566E+02
  | Error in electron count due to remaining E_F inaccuracy: -.92015284E-12
  | Maximum occupation number of highest empty state:  0.00E+00

  Highest occupied state (VBM) at    -25.62072628 eV
  | Occupation number:      2.00000000

  Lowest unoccupied state (CBM) at   -17.41379655 eV
  | Occupation number:      0.50000609

  Overall HOMO-LUMO gap:      8.20692973 eV.

  Total energy components:
  | Sum of eigenvalues            :         -89.80485361 Ha       -2443.71440165 eV
  | XC energy correction          :         -16.45648222 Ha        -447.80366511 eV
  | XC potential correction       :          21.14936706 Ha         575.50355913 eV
  | Free-atom electrostatic energy:         -71.49642846 Ha       -1945.51680515 eV
  | Hartree energy correction     :           6.81532886 Ha         185.45453421 eV
  | Entropy correction            :          -0.00016515 Ha          -0.00449404 eV
  | ---------------------------
  | Total energy                  :        -149.79306836 Ha       -4076.07677857 eV
  | Total energy, T -> 0          :        -149.79323351 Ha       -4076.08127261 eV  <-- do not rely on this value for anything but (periodic) metals
  | Electronic free energy        :        -149.79339867 Ha       -4076.08576665 eV

  Derived energy quantities:
  | Kinetic energy                :         149.46797650 Ha        4067.23057890 eV
  | Electrostatic energy          :        -282.80456264 Ha       -7695.50369236 eV
  | Energy correction for multipole
  | error in Hartree potential    :          -0.00055055 Ha          -0.01498136 eV
  | Sum of eigenvalues per atom                           :       -1221.85720082 eV
  | Total energy (T->0) per atom                          :       -2038.04063630 eV  <-- do not rely on this value for anything but (periodic) metals
  | Electronic free energy per atom                       :       -2038.04288332 eV

  Self-consistency convergence accuracy:
  | Change of charge density      :  0.6857E-04
  | Change of sum of eigenvalues  :  0.1759E-02 eV
  | Change of total energy        : -0.3991E-09 eV

  Electronic self-consistency reached - switching on the force computation.

  End self-consistency iteration #    11       :  max(cpu_time)    wall_clock(cpu1)
  | Time for this iteration                    :        0.105 s           0.105 s
  | Charge density & force component update    :        0.030 s           0.030 s
  | Density mixing                             :        0.003 s           0.003 s
  | Hartree multipole update                   :        0.005 s           0.003 s
  | Hartree multipole summation                :        0.025 s           0.025 s
  | Integration                                :        0.042 s           0.042 s
  | Solution of K.-S. eqns.                    :        0.001 s           0.001 s
  | Total energy evaluation                    :        0.000 s           0.000 s
------------------------------------------------------------

------------------------------------------------------------
          Begin self-consistency iteration #   12

  Date     :  20190722, Time     :  144438.175
------------------------------------------------------------
  Evaluating new KS density.
  Integration grid: deviation in total charge (<rho> - N_e) =  -6.608047E-13
  Pulay mixing of updated and previous charge densities.

  Evaluating partitioned Hartree potential by multipole expansion.
  | Analytical far-field extrapolation by fixed multipoles:
  | Hartree multipole sum: apparent total charge =   0.999998E+00
  Summing up the Hartree potential.
  Time summed over all CPUs for potential: real work        0.253 s, elapsed        0.258 s
  | RMS charge density error from multipole expansion :   0.497932E-03

  Integrating Hamiltonian matrix: batch-based integration.
  Time summed over all CPUs for integration: real work        0.164 s, elapsed        0.165 s

  Updating Kohn-Sham eigenvalues, eigenvectors, occupation numbers, and Fermi level.
  Solving generalized eigenproblem
  Updating Kohn-Sham eigenvalues and eigenfunctions.
  Solving real generalised eigenvalue problem by standard LAPACK (fast)
  Determining occupation numbers for Kohn-Sham eigenstates.
  | Chemical potential (Fermi level) in eV                 : -.17418612E+02
  | Error in electron count due to remaining E_F inaccuracy: -.10551560E-11
  | Maximum occupation number of highest empty state:  0.00E+00

  Highest occupied state (VBM) at    -25.62077373 eV
  | Occupation number:      2.00000000

  Lowest unoccupied state (CBM) at   -17.41384270 eV
  | Occupation number:      0.50001219

  Overall HOMO-LUMO gap:      8.20693103 eV.

  Total energy components:
  | Sum of eigenvalues            :         -89.80487925 Ha       -2443.71509927 eV
  | XC energy correction          :         -16.45648154 Ha        -447.80364680 eV
  | XC potential correction       :          21.14936622 Ha         575.50353602 eV
  | Free-atom electrostatic energy:         -71.49642846 Ha       -1945.51680515 eV
  | Hartree energy correction     :           6.81535468 Ha         185.45523662 eV
  | Entropy correction            :          -0.00016515 Ha          -0.00449404 eV
  | ---------------------------
  | Total energy                  :        -149.79306836 Ha       -4076.07677857 eV
  | Total energy, T -> 0          :        -149.79323351 Ha       -4076.08127261 eV  <-- do not rely on this value for anything but (periodic) metals
  | Electronic free energy        :        -149.79339867 Ha       -4076.08576665 eV

  Derived energy quantities:
  | Kinetic energy                :         149.46798207 Ha        4067.23073045 eV
  | Electrostatic energy          :        -282.80456888 Ha       -7695.50386222 eV
  | Energy correction for multipole
  | error in Hartree potential    :          -0.00055055 Ha          -0.01498133 eV
  | Sum of eigenvalues per atom                           :       -1221.85754963 eV
  | Total energy (T->0) per atom                          :       -2038.04063630 eV  <-- do not rely on this value for anything but (periodic) metals
  | Electronic free energy per atom                       :       -2038.04288332 eV

  atomic forces [eV/Ang]:
  -----------------------
  atom #    1
   Hellmann-Feynman              :  0.439533E-10 -0.362176E-10 -0.158244E+02
   Ionic forces                  :  0.000000E+00  0.000000E+00  0.000000E+00
   Multipole                     :  0.571899E-13 -0.852321E-13 -0.592428E-01
   Pulay + GGA                   :  0.000000E+00  0.000000E+00  0.000000E+00
   ----------------------------------------------------------------
   Total forces(   1)            :  0.440105E-10 -0.363028E-10 -0.158837E+02
  atom #    2
   Hellmann-Feynman              : -0.940347E-10 -0.168229E-10  0.158244E+02
   Ionic forces                  :  0.000000E+00  0.000000E+00  0.000000E+00
   Multipole                     : -0.145461E-12  0.113809E-12  0.592428E-01
   Pulay + GGA                   :  0.000000E+00  0.000000E+00  0.000000E+00
   ----------------------------------------------------------------
   Total forces(   2)            : -0.941802E-10 -0.167091E-10  0.158837E+02


  Self-consistency convergence accuracy:
  | Change of charge density      :  0.2331E-05
  | Change of sum of eigenvalues  : -0.6976E-03 eV
  | Change of total energy        :  0.4640E-09 eV
  | Change of forces              :  0.1588E+02 eV/A

  End self-consistency iteration #    12       :  max(cpu_time)    wall_clock(cpu1)
  | Time for this iteration                    :        0.146 s           0.145 s
  | Charge density & force component update    :        0.030 s           0.029 s
  | Density mixing                             :        0.003 s           0.003 s
  | Hartree multipole update                   :        0.004 s           0.004 s
  | Hartree multipole summation                :        0.065 s           0.065 s
  | Integration                                :        0.042 s           0.042 s
  | Solution of K.-S. eqns.                    :        0.001 s           0.001 s
  | Total energy evaluation                    :        0.001 s           0.001 s
------------------------------------------------------------

------------------------------------------------------------
          Begin self-consistency iteration #   13

  Date     :  20190722, Time     :  144438.321
------------------------------------------------------------
  Evaluating new KS density and force components.
  Integration grid: deviation in total charge (<rho> - N_e) =  -1.058709E-12
  Pulay mixing of updated and previous charge densities.

  Evaluating partitioned Hartree potential by multipole expansion.
  | Analytical far-field extrapolation by fixed multipoles:
  | Hartree multipole sum: apparent total charge =   0.999998E+00
  Summing up the Hartree potential.
  Time summed over all CPUs for potential: real work        0.253 s, elapsed        0.258 s
  | RMS charge density error from multipole expansion :   0.497933E-03

  Integrating Hamiltonian matrix: batch-based integration.
  Time summed over all CPUs for integration: real work        0.164 s, elapsed        0.165 s

  Updating Kohn-Sham eigenvalues, eigenvectors, occupation numbers, and Fermi level.
  Solving generalized eigenproblem
  Updating Kohn-Sham eigenvalues and eigenfunctions.
  Solving real generalised eigenvalue problem by standard LAPACK (fast)
  Determining occupation numbers for Kohn-Sham eigenstates.
  | Chemical potential (Fermi level) in eV                 : -.17418615E+02
  | Error in electron count due to remaining E_F inaccuracy: -.82778229E-12
  | Maximum occupation number of highest empty state:  0.00E+00

  Highest occupied state (VBM) at    -25.62077647 eV
  | Occupation number:      2.00000000

  Lowest unoccupied state (CBM) at   -17.41384520 eV
  | Occupation number:      0.50000014

  Overall HOMO-LUMO gap:      8.20693128 eV.

  Total energy components:
  | Sum of eigenvalues            :         -89.80488064 Ha       -2443.71513714 eV
  | XC energy correction          :         -16.45648155 Ha        -447.80364687 eV
  | XC potential correction       :          21.14936622 Ha         575.50353620 eV
  | Free-atom electrostatic energy:         -71.49642846 Ha       -1945.51680515 eV
  | Hartree energy correction     :           6.81535606 Ha         185.45527438 eV
  | Entropy correction            :          -0.00016515 Ha          -0.00449404 eV
  | ---------------------------
  | Total energy                  :        -149.79306836 Ha       -4076.07677857 eV
  | Total energy, T -> 0          :        -149.79323351 Ha       -4076.08127261 eV  <-- do not rely on this value for anything but (periodic) metals
  | Electronic free energy        :        -149.79339867 Ha       -4076.08576665 eV

  Derived energy quantities:
  | Kinetic energy                :         149.46798268 Ha        4067.23074710 eV
  | Electrostatic energy          :        -282.80456949 Ha       -7695.50387879 eV
  | Energy correction for multipole
  | error in Hartree potential    :          -0.00055055 Ha          -0.01498133 eV
  | Sum of eigenvalues per atom                           :       -1221.85756857 eV
  | Total energy (T->0) per atom                          :       -2038.04063630 eV  <-- do not rely on this value for anything but (periodic) metals
  | Electronic free energy per atom                       :       -2038.04288332 eV

  atomic forces [eV/Ang]:
  -----------------------
  atom #    1
   Hellmann-Feynman              :  0.339289E-10 -0.338709E-10 -0.158244E+02
   Ionic forces                  :  0.000000E+00  0.000000E+00  0.000000E+00
   Multipole                     :  0.901384E-13  0.274843E-13 -0.592429E-01
   Pulay + GGA                   : -0.843790E-11  0.276030E-11  0.156089E+02
   ----------------------------------------------------------------
   Total forces(   1)            :  0.255812E-10 -0.310831E-10 -0.274723E+00
  atom #    2
   Hellmann-Feynman              : -0.746213E-10 -0.144078E-10  0.158244E+02
   Ionic forces                  :  0.000000E+00  0.000000E+00  0.000000E+00
   Multipole                     : -0.118267E-12  0.398459E-13  0.592429E-01
   Pulay + GGA                   :  0.180518E-10 -0.186684E-11 -0.156089E+02
   ----------------------------------------------------------------
   Total forces(   2)            : -0.566877E-10 -0.162348E-10  0.274723E+00


  Self-consistency convergence accuracy:
  | Change of charge density      :  0.4205E-05
  | Change of sum of eigenvalues  : -0.3787E-04 eV
  | Change of total energy        :  0.2475E-10 eV
  | Change of forces              :  0.5358E-07 eV/A

  Writing Kohn-Sham eigenvalues.

  State    Occupation    Eigenvalue [Ha]    Eigenvalue [eV]
      1       2.00000         -19.412511         -528.24129
      2       2.00000         -19.412285         -528.23516
      3       2.00000          -1.746478          -47.52407
      4       2.00000          -1.151323          -31.32909
      5       2.00000          -0.959162          -26.10013
      6       2.00000          -0.959162          -26.10013
      7       2.00000          -0.941546          -25.62078
      8       0.50000          -0.639947          -17.41385
      9       0.50000          -0.639947          -17.41385
     10       0.00000          -0.178378           -4.85392
     11       0.00000          -0.160936           -4.37928
     12       0.00000          -0.115434           -3.14113
     13       0.00000          -0.115434           -3.14113
     14       0.00000          -0.059855           -1.62872

  Highest occupied state (VBM) at    -25.62077647 eV
  | Occupation number:      2.00000000

  Lowest unoccupied state (CBM) at   -17.41384520 eV
  | Occupation number:      0.50000014

  Overall HOMO-LUMO gap:      8.20693128 eV.

  Self-consistency cycle converged.

  End self-consistency iteration #    13       :  max(cpu_time)    wall_clock(cpu1)
  | Time for this iteration                    :        0.216 s           0.216 s
  | Charge density & force component update    :        0.100 s           0.100 s
  | Density mixing                             :        0.003 s           0.003 s
  | Hartree multipole update                   :        0.004 s           0.003 s
  | Hartree multipole summation                :        0.066 s           0.066 s
  | Integration                                :        0.042 s           0.041 s
  | Solution of K.-S. eqns.                    :        0.001 s           0.001 s
  | Total energy evaluation                    :        0.001 s           0.002 s
------------------------------------------------------------
  Writing cluster restart information to file restart
  ------------------------------------------------------------
   Computing monopole / dipole moments for complete molecule:
  | Total electronic charge [e]         :          0.150000001118390E+02
  | Total ionic charge [e]              :          0.160000000000000E+02
  | Total charge [e]                    :          0.999999888161009E+00
 * Warning: The system has a total charge of      0.99999989 .
 * The dipole moment depends on the choice of the origin.
  | Total dipole moment [eAng]          :          0.455830226685216E-13        -0.484177329553026E-13         0.602499932617004E+00
  | Absolute dipole moment              :          0.602499932617004E+00 eAng              /                   0.289347949368071E+01 Debye  .
  Removing unitary transformations (pure translations, rotations) from forces on atoms.
  Atomic forces before filtering:
  | Net force on center of mass :  -0.311065E-10 -0.473179E-10  0.128931E-10 eV/A
  | Net torque on center of mass:  -0.831716E-11 -0.460822E-10  0.000000E+00 eV
  Atomic forces after filtering:
  | Net force on center of mass :  -0.103846E-25 -0.519230E-26  0.000000E+00 eV/A
  | Net torque on center of mass:  -0.290842E-26 -0.872526E-26  0.000000E+00 eV

  Energy and forces in a compact form:
  | Total energy uncorrected      :         -0.407607677856863E+04 eV
  | Total energy corrected        :         -0.407608127260792E+04 eV  <-- do not rely on this value for anything but (periodic) metals
  | Electronic free energy        :         -0.407608576664721E+04 eV
  Total atomic forces (unitary forces cleaned) [eV/Ang]:
  |   1          0.259615079450449E-26         -0.519230158900898E-26         -0.274722912918687E+00
  |   2         -0.129807539725224E-25          0.000000000000000E+00          0.274722912918687E+00

  ------------------------------------ 
  Start decomposition of the XC Energy 
  ------------------------------------ 
  Hartree-Fock part   :          0.000000000 Ha              0.000000000 eV
  ------------------------------------ 
  X Energy            :        -15.952863423 Ha           -434.099500479 eV
  C Energy GGA        :         -0.503618123 Ha            -13.704146394 eV
  Total XC Energy     :        -16.456481546 Ha           -447.803646873 eV
  LDA X and C from self-consistent density 
  X Energy LDA        :        -14.468619985 Ha           -393.711181598 eV
  C Energy LDA        :         -1.061785386 Ha            -28.892650399 eV
  ------------------------------------ 
  End decomposition of the XC Energy 
  ------------------------------------ 

------------------------------------------------------------------------------
  Final output of selected total energy values:

  The following output summarizes some interesting total energy values
  at the end of a run (AFTER all relaxation, molecular dynamics, etc.).

  | Total energy of the DFT / Hartree-Fock s.c.f. calculation      :          -4076.076778569 eV
  | Final zero-broadening corrected energy (caution - metals only) :          -4076.081272608 eV
  | For reference only, the value of 1 Hartree used in FHI-aims is :             27.211384500 eV

  Before relying on these values, please be sure to understand exactly which
  total energy value is referred to by a given number. Different objects may
  all carry the same name 'total energy'. Definitions:

  Total energy of the DFT / Hartree-Fock s.c.f. calculation:
  | Note that this energy does not include ANY quantities calculated after the
  | s.c.f. cycle, in particular not ANY RPA, MP2, etc. many-body perturbation terms.

  Final zero-broadening corrected energy:
  | For metallic systems only, a broadening of the occupation numbers at the Fermi
  | level can be extrapolated back to zero broadening by an electron-gas inspired
  | formula. For all systems that are not real metals, this value can be
  | meaningless and should be avoided.

------------------------------------------------------------------------------
  Methods described in the following list of references were used in this FHI-aims run.
  If you publish the results, please make sure to cite these reference if they apply.
  FHI-aims is an academic code, and for our developers (often, Ph.D. students
  and postdocs), scientific credit in the community is essential.
  Thank you for helping us!

  For any use of FHI-aims, please cite:

    Volker Blum, Ralf Gehrke, Felix Hanke, Paula Havu, Ville Havu,
    Xinguo Ren, Karsten Reuter, and Matthias Scheffler
    'Ab initio molecular simulations with numeric atom-centered orbitals'
    Computer Physics Communications 180, 2175-2196 (2009)
    http://dx.doi.org/10.1016/j.cpc.2009.06.022


  For the real-space grid partitioning and parallelization used in this calculation, please cite:

    Ville Havu, Volker Blum, Paula Havu, and Matthias Scheffler,
    'Efficient O(N) integration for all-electron electronic structure calculation'
    'using numerically tabulated basis functions'
    Journal of Computational Physics 228, 8367-8379 (2009).
    http://dx.doi.org/10.1016/j.jcp.2009.08.008

  Of course, there are many other important community references, e.g., those cited in the
  above references. Our list is limited to references that describe implementations in the
  FHI-aims code. The reason is purely practical (length of this list) - please credit others as well.

------------------------------------------------------------
          Leaving FHI-aims.
          Date     :  20190722, Time     :  144438.572

          Computational steps:
          | Number of self-consistency cycles          :           13

          Detailed time accounting                     :  max(cpu_time)    wall_clock(cpu1)
          | Total time                                 :        1.950 s           1.967 s
          | Preparation time                           :        0.142 s           0.151 s
          | Grid partitioning                          :        0.022 s           0.021 s
          | Preloading free-atom quantities on grid    :        0.017 s           0.017 s
          | Free-atom superposition energy             :        0.009 s           0.008 s
          | Total time for integrations                :        0.652 s           0.647 s
          | Total time for solution of K.-S. equations :        0.022 s           0.023 s
          | Total time for density & force components  :        0.487 s           0.484 s
          | Total time for mixing                      :        0.032 s           0.031 s
          | Total time for Hartree multipole update    :        0.056 s           0.048 s
          | Total time for Hartree multipole sum       :        0.434 s           0.435 s
          | Total time for total energy evaluation     :        0.009 s           0.015 s

          Have a nice day.
------------------------------------------------------------
